----- GAMESS execution script 'rungms' -----
This job is running on host chemcompute-node-0.novalocal
under operating system Linux at Sat Nov 13 16:04:56 UTC 2021
SLURM has assigned the following compute nodes to this run:
chemcompute-node-0
Available scratch disk space (Kbyte units) at beginning of the job is
Filesystem     1K-blocks     Used Available Use% Mounted on
/dev/sda1       62903276 23516600  39386676  38% /
GAMESS temporary binary files will be written to /scratch/306020
GAMESS supplementary output files will be written to /data/slurm/341922
Copying input file 341922.inp to your run's scratch directory...
The generated host list is
chemcompute-node-0.novalocal

 Distributed Data Interface kickoff program.
 Initiating 1 compute processes on 1 nodes to run the following command:
 /data/gamess-2019R1-ddi/gamess.00.x 341922 

          ******************************************************
          *         GAMESS VERSION = 30 JUN 2019 (R1)          *
          *             FROM IOWA STATE UNIVERSITY             *
          * M.W.SCHMIDT, K.K.BALDRIDGE, J.A.BOATZ, S.T.ELBERT, *
          *   M.S.GORDON, J.H.JENSEN, S.KOSEKI, N.MATSUNAGA,   *
          *          K.A.NGUYEN, S.J.SU, T.L.WINDUS,           *
          *       TOGETHER WITH M.DUPUIS, J.A.MONTGOMERY       *
          *         J.COMPUT.CHEM.  14, 1347-1363(1993)        *
          **************** 64 BIT LINUX VERSION ****************

  SINCE 1993, STUDENTS AND POSTDOCS WORKING AT IOWA STATE UNIVERSITY
  AND ALSO IN THEIR VARIOUS JOBS AFTER LEAVING ISU HAVE MADE IMPORTANT
  CONTRIBUTIONS TO THE CODE:
     IVANA ADAMOVIC, CHRISTINE AIKENS, YURI ALEXEEV, POOJA ARORA,
     ANDREY ASADCHEV, ROB BELL, PRADIPTA BANDYOPADHYAY, JONATHAN BENTZ,
     COLLEEN BERTONI, BRETT BODE, KURT BRORSEN, CALEB CARLIN, GALINA CHABAN,
     WEI CHEN, CHEOL HO CHOI, PAUL DAY, ALBERT DEFUSCO, NUWAN DESILVA,
     TIM DUDLEY, DMITRI FEDOROV, ALEX FINDLATER, GRAHAM FLETCHER, 
     MARK FREITAG, KURT GLAESEMANN, ANASTASIA GUNINA,
     DAN KEMP, GRANT MERRILL, NORIYUKI MINEZAWA, JONATHAN MULLIN,
     TAKESHI NAGATA, SEAN NEDD, HEATHER NETZLOFF, BOSILJKA NJEGIC, RYAN OLSON,
     MIKE PAK, BUU PHAM,
     SPENCER PRUITT, LUKE ROSKOP, JIM SHOEMAKER, LYUDMILA SLIPCHENKO,
     TONY SMITH, SAROM SOK LEANG, JIE SONG, TETSUYA TAKETSUGU, SIMON WEBB,
     PENG XU, SOOHAENG YOO, FEDERICO ZAHARIEV

  ADDITIONAL CODE HAS BEEN PROVIDED BY COLLABORATORS IN OTHER GROUPS:
     IOWA STATE UNIVERSITY:
          JOE IVANIC, AARON WEST, LAIMUTIS BYTAUTAS, KLAUS RUEDENBERG
     UNIVERSITY OF TOKYO: KIMIHIKO HIRAO, TAKAHITO NAKAJIMA,
          TAKAO TSUNEDA, MUNEAKI KAMIYA, SUSUMU YANAGISAWA,
          KIYOSHI YAGI, MAHITO CHIBA, SEIKEN TOKURA, NAOAKI KAWAKAMI
     UNIVERSITY OF AARHUS: FRANK JENSEN
     UNIVERSITY OF IOWA: VISVALDAS KAIRYS, HUI LI
     NATIONAL INST. OF STANDARDS AND TECHNOLOGY: WALT STEVENS, DAVID GARMER
     UNIVERSITY OF PISA: BENEDETTA MENNUCCI, JACOPO TOMASI
     UNIVERSITY OF MEMPHIS: HENRY KURTZ, PRAKASHAN KORAMBATH
     UNIVERSITY OF ALBERTA: TOBY ZENG, MARIUSZ KLOBUKOWSKI
     UNIVERSITY OF NEW ENGLAND: MARK SPACKMAN
     MIE UNIVERSITY: HIROAKI UMEDA
     NAT. INST. OF ADVANCED INDUSTRIAL SCIENCE AND TECHNOLOGY: KAZUO KITAURA
     MICHIGAN STATE UNIVERSITY:
          KAROL KOWALSKI, MARTA WLOCH, JEFFREY GOUR, JESSE LUTZ,
          WEI LI, JUN SHEN, J. EMILIANO DEUSTUA, PIOTR PIECUCH
     UNIVERSITY OF MINNESOTA:
          YINAN SHU
     UNIVERSITY OF SILESIA: MONIKA MUSIAL, STANISLAW KUCHARSKI
     FACULTES UNIVERSITAIRES NOTRE-DAME DE LA PAIX:
          OLIVIER QUINET, BENOIT CHAMPAGNE
     UNIVERSITY OF CALIFORNIA - SANTA BARBARA: BERNARD KIRTMAN
     INSTITUTE FOR MOLECULAR SCIENCE:
          KAZUYA ISHIMURA, MICHIO KATOUDA, AND SHIGERU NAGASE
     UNIVERSITY OF NOTRE DAME: ANNA POMOGAEVA, DAN CHIPMAN
     KYUSHU UNIVERSITY:
          HARUYUKI NAKANO,
          FENG LONG GU, JACEK KORCHOWIEC, MARCIN MAKOWSKI, AND YURIKO AOKI,
          HIROTOSHI MORI AND EISAKU MIYOSHI
     PENNSYLVANIA STATE UNIVERSITY:
          TZVETELIN IORDANOV, CHET SWALINA, JONATHAN SKONE,
          SHARON HAMMES-SCHIFFER
     WASEDA UNIVERSITY:
          MASATO KOBAYASHI, TOMOKO AKAMA, TSUGUKI TOUMA,
          TAKESHI YOSHIKAWA, YASUHIRO IKABATA, JUNJI SEINO,
          YUYA NAKAJIMA, HIROMI NAKAI
     NANJING UNIVERSITY: SHUHUA LI
     UNIVERSITY OF NEBRASKA:
          PEIFENG SU, DEJUN SI, NANDUN THELLAMUREGE, YALI WANG, HUI LI
     UNIVERSITY OF ZURICH: ROBERTO PEVERATI, KIM BALDRIDGE
     N. COPERNICUS UNIVERSITY AND JACKSON STATE UNIVERSITY:
          MARIA BARYSZ
     UNIVERSITY OF COPENHAGEN: Jimmy Kromann, CASPER STEINMANN
     TOKYO INSTITUTE OF TECHNOLOGY: HIROYA NAKATA
     NAGOYA UNIVERSITY: YOSHIO NISHIMOTO, STEPHAN IRLE
     MOSCOW STATE UNIVERSITY: VLADIMIR MIRONOV
     A.N.NESMEYANOV INSTITUTE OF ORGANOELEMENT COMPOUNDS OF RUSSIAN ACADEMY OF SCIENCES:
          IGOR S. GERASIMOV

 EXECUTION OF GAMESS BEGUN Sat Nov 13 16:04:56 2021

            ECHO OF THE FIRST FEW INPUT CARDS -
 INPUT CARD>!File created by the GAMESS Input Deck Generator Plugin for Avogadro            
 INPUT CARD> $BASIS GBASIS=STO NGAUSS=3 $END                                                
 INPUT CARD> $CONTRL SCFTYP=RHF RUNTYP=SADPOINT NZVAR=1 mult=1  ICHARG=0 $END               
 INPUT CARD> $STATPT hssend=.t. OPTTOL=0.0005 NSTEP=50 $END                                 
 INPUT CARD> $STATPT HESS=calc ihrep=5 $END                                                 
 INPUT CARD> $FORCE nvib=2 $END                                                             
 INPUT CARD> $ZMAT DLC=.t. auto=.t. nonvdw(1)=9,12 $END                                     
 INPUT CARD>!$ZMAT IFZMAT(1)=1,9,12 fvalue(1)=4.20 $END                                     
 INPUT CARD> $DATA                                                                          
 INPUT CARD>Title                                                                           
 INPUT CARD>C1                                                                              
 INPUT CARD>C     6.0    -5.13300991     1.08605993     0.30472001                          
 INPUT CARD>C     6.0    -3.85763001     1.62377000    -0.33443999                          
 INPUT CARD>C     6.0    -5.06514025    -0.37485999    -0.10922001                          
 INPUT CARD>H     1.0    -5.05865002     1.16570997     1.41360998                          
 INPUT CARD>H     1.0    -6.06018019     1.59744000    -0.03128000                          
 INPUT CARD>C     6.0    -2.84571004     0.59405994     0.14223000                          
 INPUT CARD>H     1.0    -3.60423994     2.66321993    -0.03609000                          
 INPUT CARD>H     1.0    -3.94621992     1.57778001    -1.44418001                          
 INPUT CARD>C     6.0    -3.58214998    -0.74984998     0.03530000                          
 INPUT CARD>H     1.0    -2.69928980     0.80418003     1.22763002                          
 INPUT CARD>H     1.0    -1.84423995     0.62194997    -0.33654001                          
 INPUT CARD>B     5.0    -6.01302004    -4.17231989    -0.01664000                          
 INPUT CARD>H     1.0    -4.89730978    -3.81983995    -0.17807999                          
 INPUT CARD>H     1.0    -6.48531008    -4.97915030    -0.73842996                          
 INPUT CARD>H     1.0    -6.70040989    -3.60521007     0.75854999                          
 INPUT CARD>H     1.0    -3.17123008    -1.69629002     0.05597000                          
 INPUT CARD>H     1.0    -5.84188032    -0.97994000    -0.41837999                          
 INPUT CARD> $END                                                                           
    1000000 WORDS OF MEMORY AVAILABLE

     BASIS OPTIONS
     -------------
     GBASIS=STO          IGAUSS=       3      POLAR=NONE    
     NDFUNC=       0     NFFUNC=       0     DIFFSP=       F
     NPFUNC=       0      DIFFS=       F     BASNAM=        


     RUN TITLE
     ---------
 Title                                                                           

 THE POINT GROUP OF THE MOLECULE IS C1      
 THE ORDER OF THE PRINCIPAL AXIS IS     0

 ATOM      ATOMIC                      COORDINATES (BOHR)
           CHARGE         X                   Y                   Z
 C           6.0    -9.6999822222        2.0523556739        0.5758373219
 C           6.0    -7.2898636809        3.0684803671       -0.6319999404
 C           6.0    -9.5717271619       -0.7083826649       -0.2063958913
 H           1.0    -9.5594624056        2.2028724245        2.6713355157
 H           1.0   -11.4520799953        3.0187238818       -0.0591106289
 C           6.0    -5.3776122161        1.1226105069        0.2687757272
 H           1.0    -6.8110258806        5.0327559127       -0.0682002109
 H           1.0    -7.4572743361        2.9815718878       -2.7291044958
 C           6.0    -6.7692819091       -1.4170109941        0.0667073274
 H           1.0    -5.1009180835        1.5196799015        2.3198843521
 H           1.0    -3.4851081611        1.1753150214       -0.6359684028
 B           5.0   -11.3629602343       -7.8845413252       -0.0314450404
 H           1.0    -9.2545735612       -7.2184508225       -0.3365223850
 H           1.0   -12.2554589966       -9.4092297187       -1.3954302855
 H           1.0   -12.6619386975       -6.8128591605        1.4334516291
 H           1.0    -5.9927558952       -3.2055233335        0.1057679635
 H           1.0   -11.0395530579       -1.8518180844       -0.7906235398

          INTERNUCLEAR DISTANCES (ANGS.)
          ------------------------------

                1 C          2 C          3 C          4 H          5 H     

   1 C       0.0000000    1.5245496 *  1.5199473 *  1.1142309 *  1.1108782 *
   2 C       1.5245496 *  0.0000000    2.3459171 *  2.1697803 *  2.2234717 *
   3 C       1.5199473 *  2.3459171 *  0.0000000    2.1661969 *  2.2104629 *
   4 H       1.1142309 *  2.1697803 *  2.1661969 *  0.0000000    1.8102929 *
   5 H       1.1108782 *  2.2234717 *  2.2104629 *  1.8102929 *  0.0000000  
   6 C       2.3452522 *  1.5203615 *  2.4347286 *  2.6153956 *  3.3718979  
   7 H       2.2227737 *  1.1107094 *  3.3718700    2.5415497 *  2.6772285 *
   8 H       2.1700024 *  1.1142200 *  2.6166589 *  3.0942311    2.5427349 *
   9 C       2.4183298 *  2.4179886 *  1.5364777 *  2.7837314 *  3.4139181  
  10 H       2.6180551 *  2.1103418 *  2.9621870 *  2.3941331 *  3.6755544  
  11 H       3.3826942    2.2488636 *  3.3792755    3.7001530    4.3380775  
  12 B       5.3411842    6.1920401    3.9150669    5.6081191    5.7699712  
  13 H       4.9352309    5.5442107    3.4497530    5.2359541    5.5426293  
  14 H       6.3010835    7.1180381    4.8592465    6.6652789    6.6281473  
  15 H       4.9669627    6.0513021    3.7232101    5.0878441    5.3010653  
  16 H       3.4134920    3.4126769    2.3152453 *  3.6873546    4.3820432  
  17 H       2.3008100 *  3.2746910    1.0320014 *  2.9280456 *  2.6154137 *

                6 C          7 H          8 H          9 C         10 H     

   1 C       2.3452522 *  2.2227737 *  2.1700024 *  2.4183298 *  2.6180551 *
   2 C       1.5203615 *  1.1107094 *  1.1142200 *  2.4179886 *  2.1103418 *
   3 C       2.4347286 *  3.3718700    2.6166589 *  1.5364777 *  2.9621870 *
   4 H       2.6153956 *  2.5415497 *  3.0942311    2.7837314 *  2.3941331 *
   5 H       3.3718979    2.6772285 *  2.5427349 *  3.4139181    3.6755544  
   6 C       0.0000000    2.2110153 *  2.1669158 *  1.5361874 *  1.1152052 *
   7 H       2.2110153 *  0.0000000    1.8104827 *  3.4138879    2.4232112 *
   8 H       2.1669158 *  1.8104827 *  0.0000000    2.7819542 *  3.0482553  
   9 C       1.5361874 *  3.4138879    2.7819542 *  0.0000000    2.1485116 *
  10 H       1.1152052 *  2.4232112 *  3.0482553    2.1485116 *  0.0000000  
  11 H       1.1103787 *  2.7119464 *  2.5610149 *  2.2450905 *  1.7919112 *
  12 B       5.7249864    7.2475654    6.2748053    4.1982291    6.1069278  
  13 H       4.8779270    6.6122807    5.6251118    3.3466423    5.3093195  
  14 H       6.7143818    8.1975404    7.0667105    5.1878683    7.1865326  
  15 H       5.7334483    7.0364008    6.2690484    4.2894891    5.9725806  
  16 H       2.3149745 *  4.3819288    3.6838287    1.0320035 *  2.8014042 *
  17 H       3.4305678    4.2925277    3.3448058    2.3162789 *  3.9709329  

               11 H         12 B         13 H         14 H         15 H     

   1 C       3.3826942    5.3411842    4.9352309    6.3010835    4.9669627  
   2 C       2.2488636 *  6.1920401    5.5442107    7.1180381    6.0513021  
   3 C       3.3792755    3.9150669    3.4497530    4.8592465    3.7232101  
   4 H       3.7001530    5.6081191    5.2359541    6.6652789    5.0878441  
   5 H       4.3380775    5.7699712    5.5426293    6.6281473    5.3010653  
   6 C       1.1103787 *  5.7249864    4.8779270    6.7143818    5.7334483  
   7 H       2.7119464 *  7.2475654    6.6122807    8.1975404    7.0364008  
   8 H       2.5610149 *  6.2748053    5.6251118    7.0667105    6.2690484  
   9 C       2.2450905 *  4.1982291    3.3466423    5.1878683    4.2894891  
  10 H       1.7919112 *  6.1069278    5.3093195    7.1865326    5.9725806  
  11 H       0.0000000    6.3612960    5.3922020    7.2851473    6.5307343  
  12 B       6.3612960    0.0000000    1.1811496 *  1.1811071 *  1.1811172 *
  13 H       5.3922020    1.1811496 *  0.0000000    2.0444406 *  2.0431622 *
  14 H       7.2851473    1.1811071 *  2.0444406 *  0.0000000    2.0432642 *
  15 H       6.5307343    1.1811172 *  2.0431622 *  2.0432642 *  0.0000000  
  16 H       2.6998525 *  3.7698496    2.7465605 *  4.7319519    4.0734144  
  17 H       4.3074212    3.2221069    3.0024972    4.0632643    3.0023791  

               16 H         17 H     

   1 C       3.4134920    2.3008100 *
   2 C       3.4126769    3.2746910  
   3 C       2.3152453 *  1.0320014 *
   4 H       3.6873546    2.9280456 *
   5 H       4.3820432    2.6154137 *
   6 C       2.3149745 *  3.4305678  
   7 H       4.3819288    4.2925277  
   8 H       3.6838287    3.3448058  
   9 C       1.0320035 *  2.3162789 *
  10 H       2.8014042 *  3.9709329  
  11 H       2.6998525 *  4.3074212  
  12 B       3.7698496    3.2221069  
  13 H       2.7465605 *  3.0024972  
  14 H       4.7319519    4.0632643  
  15 H       4.0734144    3.0023791  
  16 H       0.0000000    2.8054479 *
  17 H       2.8054479 *  0.0000000  

  * ... LESS THAN  3.000


     ATOMIC BASIS SET
     ----------------
 THE CONTRACTED PRIMITIVE FUNCTIONS HAVE BEEN UNNORMALIZED
 THE CONTRACTED BASIS FUNCTIONS ARE NOW NORMALIZED TO UNITY

  SHELL TYPE  PRIMITIVE        EXPONENT          CONTRACTION COEFFICIENT(S)

 C         

      1   S       1            71.6168373    0.154328967295
      1   S       2            13.0450963    0.535328142282
      1   S       3             3.5305122    0.444634542185

      2   L       4             2.9412494   -0.099967229187    0.155916274999
      2   L       5             0.6834831    0.399512826089    0.607683718598
      2   L       6             0.2222899    0.700115468880    0.391957393099

 C         

      3   S       7            71.6168373    0.154328967295
      3   S       8            13.0450963    0.535328142282
      3   S       9             3.5305122    0.444634542185

      4   L      10             2.9412494   -0.099967229187    0.155916274999
      4   L      11             0.6834831    0.399512826089    0.607683718598
      4   L      12             0.2222899    0.700115468880    0.391957393099

 C         

      5   S      13            71.6168373    0.154328967295
      5   S      14            13.0450963    0.535328142282
      5   S      15             3.5305122    0.444634542185

      6   L      16             2.9412494   -0.099967229187    0.155916274999
      6   L      17             0.6834831    0.399512826089    0.607683718598
      6   L      18             0.2222899    0.700115468880    0.391957393099

 H         

      7   S      19             3.4252509    0.154328967295
      7   S      20             0.6239137    0.535328142282
      7   S      21             0.1688554    0.444634542185

 H         

      8   S      22             3.4252509    0.154328967295
      8   S      23             0.6239137    0.535328142282
      8   S      24             0.1688554    0.444634542185

 C         

      9   S      25            71.6168373    0.154328967295
      9   S      26            13.0450963    0.535328142282
      9   S      27             3.5305122    0.444634542185

     10   L      28             2.9412494   -0.099967229187    0.155916274999
     10   L      29             0.6834831    0.399512826089    0.607683718598
     10   L      30             0.2222899    0.700115468880    0.391957393099

 H         

     11   S      31             3.4252509    0.154328967295
     11   S      32             0.6239137    0.535328142282
     11   S      33             0.1688554    0.444634542185

 H         

     12   S      34             3.4252509    0.154328967295
     12   S      35             0.6239137    0.535328142282
     12   S      36             0.1688554    0.444634542185

 C         

     13   S      37            71.6168373    0.154328967295
     13   S      38            13.0450963    0.535328142282
     13   S      39             3.5305122    0.444634542185

     14   L      40             2.9412494   -0.099967229187    0.155916274999
     14   L      41             0.6834831    0.399512826089    0.607683718598
     14   L      42             0.2222899    0.700115468880    0.391957393099

 H         

     15   S      43             3.4252509    0.154328967295
     15   S      44             0.6239137    0.535328142282
     15   S      45             0.1688554    0.444634542185

 H         

     16   S      46             3.4252509    0.154328967295
     16   S      47             0.6239137    0.535328142282
     16   S      48             0.1688554    0.444634542185

 B         

     17   S      49            48.7911132    0.154328967295
     17   S      50             8.8873622    0.535328142282
     17   S      51             2.4052670    0.444634542185

     18   L      52             2.2369561   -0.099967229187    0.155916274999
     18   L      53             0.5198205    0.399512826089    0.607683718598
     18   L      54             0.1690618    0.700115468880    0.391957393099

 H         

     19   S      55             3.4252509    0.154328967295
     19   S      56             0.6239137    0.535328142282
     19   S      57             0.1688554    0.444634542185

 H         

     20   S      58             3.4252509    0.154328967295
     20   S      59             0.6239137    0.535328142282
     20   S      60             0.1688554    0.444634542185

 H         

     21   S      61             3.4252509    0.154328967295
     21   S      62             0.6239137    0.535328142282
     21   S      63             0.1688554    0.444634542185

 H         

     22   S      64             3.4252509    0.154328967295
     22   S      65             0.6239137    0.535328142282
     22   S      66             0.1688554    0.444634542185

 H         

     23   S      67             3.4252509    0.154328967295
     23   S      68             0.6239137    0.535328142282
     23   S      69             0.1688554    0.444634542185

 TOTAL NUMBER OF BASIS SET SHELLS             =   23
 NUMBER OF CARTESIAN GAUSSIAN BASIS FUNCTIONS =   41
 NUMBER OF ELECTRONS                          =   46
 CHARGE OF MOLECULE                           =    0
 SPIN MULTIPLICITY                            =    1
 NUMBER OF OCCUPIED ORBITALS (ALPHA)          =   23
 NUMBER OF OCCUPIED ORBITALS (BETA )          =   23
 TOTAL NUMBER OF ATOMS                        =   17
 THE NUCLEAR REPULSION ENERGY IS      209.7604799306

     $CONTRL OPTIONS
     ---------------
 SCFTYP=RHF          RUNTYP=SADPOINT     EXETYP=RUN     
 MPLEVL=       0     CITYP =NONE         CCTYP =NONE         VBTYP =NONE    
 DFTTYP=NONE         TDDFT =NONE    
 MULT  =       1     ICHARG=       0     NZVAR =       1     COORD =UNIQUE  
 PP    =NONE         RELWFN=NONE         LOCAL =NONE         NUMGRD=       F
 ISPHER=      -1     NOSYM =       0     MAXIT =      30     UNITS =ANGS    
 PLTORB=       F     MOLPLT=       F     AIMPAC=       F     FRIEND=        
 NPRINT=       7     IREST =       0     GEOM  =INPUT   
 NORMF =       0     NORMP =       0     ITOL  =      20     ICUT  =       9
 INTTYP=BEST         GRDTYP=BEST         QMTTOL= 1.0E-06

     $SYSTEM OPTIONS
     ---------------
  REPLICATED MEMORY=     1000000 WORDS (ON EVERY NODE).
 DISTRIBUTED MEMDDI=           0 MILLION WORDS IN AGGREGATE,
 MEMDDI DISTRIBUTED OVER   1 PROCESSORS IS           0 WORDS/PROCESSOR.
 TOTAL MEMORY REQUESTED ON EACH PROCESSOR=     1000000 WORDS.
 TIMLIM=      525600.00 MINUTES, OR     365.0 DAYS.
 PARALL= F  BALTYP=  DLB     KDIAG=    0  COREFL= F
 MXSEQ2=     300 MXSEQ3=     150  mem10=         0

          ----------------
          PROPERTIES INPUT
          ----------------

     MOMENTS            FIELD           POTENTIAL          DENSITY
 IEMOM =       1   IEFLD =       0   IEPOT =       0   IEDEN =       0
 WHERE =COMASS     WHERE =NUCLEI     WHERE =NUCLEI     WHERE =NUCLEI  
 OUTPUT=BOTH       OUTPUT=BOTH       OUTPUT=BOTH       OUTPUT=BOTH    
 IEMINT=       0   IEFINT=       0                     IEDINT=       0
                                                       MORB  =       0
          EXTRAPOLATION IN EFFECT
          SOSCF IN EFFECT
 ORBITAL PRINTING OPTION: NPREO=     1    41     2     1

     -------------------------------
     INTEGRAL TRANSFORMATION OPTIONS
     -------------------------------
     NWORD  =            0
     CUTOFF = 1.0E-09     MPTRAN =       0
     DIRTRF =       F     AOINTS =DUP     

          ----------------------
          INTEGRAL INPUT OPTIONS
          ----------------------
 NOPK  =       1 NORDER=       0 SCHWRZ=       T


 -----------------------------------------------
  STATISTICS ON AUTOMATIC COORDINATE GENERATION 
 -----------------------------------------------
  NUMBER OF USER SPECIFIED BONDS                             1
  NUMBER OF BONDS                                           17
  NUMBER OF ANGLES                                          33
  NUMBER OF TORSIONS                                        48
  NUMBER OF EXTRA COORD.                                     0
  NUMBER OF EXTRA COORD. FOR CONSTRAINTS                     0
  NUMBER OF CONSTRAINED COORD.                               0

  TOTAL NUMBER OF PRIMITIVES                                98
 -----------------------------------------------

   --- ENCODED Z MATRIX ---
 COORD  TYPE   I   J   K   L   M   N
    1      1    1   5
    2      1    1   3
    3      1    1   4
    4      1    1   2
    5      1    2   7
    6      1    2   8
    7      1    2   6
    8      1    3   9
    9      1    3  17
   10      1    6  11
   11      1    6  10
   12      1    6   9
   13      1    9  16
   14      1    9  12
   15      1   12  15
   16      1   12  14
   17      1   12  13
   18      2    1   3  17
   19      2    1   2   6
   20      2    1   2   8
   21      2    1   3   9
   22      2    1   2   7
   23      2    2   6  11
   24      2    2   1   4
   25      2    2   1   3
   26      2    2   6  10
   27      2    2   6   9
   28      2    2   1   5
   29      2    3   1   5
   30      2    3   9  12
   31      2    3   9  16
   32      2    3   9   6
   33      2    3   1   4
   34      2    4   1   5
   35      2    6   2   7
   36      2    6   9  12
   37      2    6   9  16
   38      2    6   2   8
   39      2    7   2   8
   40      2    9  12  13
   41      2    9  12  14
   42      2    9  12  15
   43      2    9   6  10
   44      2    9   6  11
   45      2    9   3  17
   46      2   10   6  11
   47      2   12   9  16
   48      2   13  12  14
   49      2   13  12  15
   50      2   14  12  15
   51      3    1   2   6  11
   52      3    1   2   6   9
   53      3    1   3   9  12
   54      3    1   3   9  16
   55      3    1   2   6  10
   56      3    1   3   9   6
   57      3    2   1   3   9
   58      3    2   1   3  17
   59      3    2   6   9  12
   60      3    2   6   9   3
   61      3    2   6   9  16
   62      3    3   9   6  10
   63      3    3   9   6  11
   64      3    3   9  12  13
   65      3    3   9  12  14
   66      3    3   9  12  15
   67      3    3   1   2   8
   68      3    3   1   2   7
   69      3    3   1   2   6
   70      3    4   1   3   9
   71      3    4   1   2   6
   72      3    4   1   2   8
   73      3    4   1   2   7
   74      3    4   1   3  17
   75      3    5   1   3   9
   76      3    5   1   3  17
   77      3    5   1   2   8
   78      3    5   1   2   7
   79      3    5   1   2   6
   80      3    6   9   3  17
   81      3    6   9  12  13
   82      3    6   9  12  14
   83      3    6   9  12  15
   84      3    7   2   6  11
   85      3    7   2   6   9
   86      3    7   2   6  10
   87      3    8   2   6  11
   88      3    8   2   6   9
   89      3    8   2   6  10
   90      3   10   6   9  16
   91      3   10   6   9  12
   92      3   11   6   9  16
   93      3   11   6   9  12
   94      3   12   9   3  17
   95      3   13  12   9  16
   96      3   14  12   9  16
   97      3   15  12   9  16
   98      3   16   9   3  17

          INDEP./SYM. INTERNAL COORDINATES
          --------------------------------
 CRD  1=  -0.1899 (  2)  0.1162 (  7) -0.1786 (  8) -0.1065 ( 14) -0.1597 ( 27)
          -0.5187 ( 30) -0.1797 ( 31)  0.1087 ( 32) -0.4791 ( 36)  0.3489 ( 47)
          -0.2119 ( 53) -0.1911 ( 94)  0.1090 ( 97)
 CRD  2=  -0.1085 (  2) -0.2619 ( 12) -0.3367 ( 14)  0.1759 ( 19)  0.1371 ( 23)
          -0.1948 ( 25)  0.1007 ( 26) -0.2886 ( 27)  0.1312 ( 28)  0.2152 ( 32)
           0.1664 ( 33)  0.2020 ( 36) -0.1210 ( 37) -0.2354 ( 40) -0.2981 ( 41)
           0.1054 ( 42)  0.1697 ( 43)  0.1335 ( 52)  0.1663 ( 53)  0.1149 ( 66)
          -0.1055 ( 67) -0.1148 ( 68) -0.1095 ( 69)  0.1468 ( 85)  0.1396 ( 88)
           0.1235 ( 94)
 CRD  3=  -0.1138 (  7)  0.2610 (  8) -0.4022 ( 12) -0.5131 ( 14) -0.1156 ( 16)
           0.1141 ( 17)  0.1280 ( 27)  0.1053 ( 29)  0.1889 ( 40)  0.1853 ( 41)
          -0.3348 ( 42) -0.1232 ( 43) -0.1394 ( 49)  0.1512 ( 50) -0.1102 ( 53)
           0.1016 ( 60) -0.1084 ( 94)
 CRD  4=   0.1828 (  7)  0.1568 ( 12)  0.2105 ( 14) -0.1076 ( 18)  0.2225 ( 19)
           0.1748 ( 21) -0.1226 ( 22) -0.1919 ( 25) -0.2096 ( 27)  0.1589 ( 33)
          -0.1135 ( 38)  0.4550 ( 40)  0.3755 ( 41) -0.3469 ( 42)  0.1410 ( 43)
 CRD  5=   0.1311 (  1)  0.2461 (  8) -0.1347 ( 18)  0.2720 ( 19)  0.2047 ( 21)
          -0.1025 ( 22)  0.1157 ( 24) -0.1859 ( 25)  0.1222 ( 29) -0.1039 ( 32)
          -0.1672 ( 38) -0.2374 ( 40) -0.1692 ( 41)  0.2899 ( 42)  0.1080 ( 54)
          -0.1210 ( 57)  0.1169 ( 60)  0.1681 ( 62)  0.1314 ( 63) -0.1259 ( 64)
          -0.1159 ( 65) -0.2809 ( 66)  0.1395 ( 69) -0.1600 ( 70) -0.1392 ( 75)
          -0.1359 ( 80) -0.1011 ( 83) -0.1858 ( 94) -0.1049 ( 97)
 CRD  6=  -0.1089 (  1) -0.4106 (  2) -0.3261 (  7)  0.2339 (  8)  0.2446 ( 12)
          -0.2958 ( 18) -0.1286 ( 21)  0.1491 ( 25) -0.1241 ( 27) -0.1790 ( 29)
          -0.1256 ( 35)  0.2168 ( 44)  0.4244 ( 45) -0.1117 ( 67) -0.1261 ( 69)
          -0.1113 ( 71)
 CRD  7=  -0.1018 (  1) -0.5979 (  4) -0.1065 (  5) -0.1020 (  9) -0.1225 ( 10)
          -0.1114 ( 12) -0.2423 ( 22) -0.1918 ( 24) -0.1240 ( 28) -0.1552 ( 32)
           0.1297 ( 33)  0.1043 ( 34)  0.1821 ( 35) -0.1229 ( 36)  0.1147 ( 51)
           0.1069 ( 52)  0.1092 ( 54)  0.1705 ( 55)  0.1522 ( 56)  0.1113 ( 70)
           0.1128 ( 71)  0.1680 ( 74) -0.1253 ( 75)  0.1091 ( 89)
 CRD  8=   0.3362 (  4)  0.1791 (  5)  0.3455 (  7)  0.1264 (  8) -0.1419 ( 14)
          -0.1532 ( 18) -0.1754 ( 19)  0.1920 ( 20)  0.1402 ( 25)  0.1871 ( 26)
           0.1344 ( 28) -0.1720 ( 29)  0.2188 ( 35) -0.1246 ( 39) -0.2201 ( 43)
           0.1069 ( 45)  0.1403 ( 53)  0.1322 ( 56) -0.1047 ( 59) -0.1197 ( 60)
          -0.1024 ( 63)  0.1137 ( 69)  0.1192 ( 71)  0.1030 ( 76)  0.1628 ( 79)
           0.1070 ( 80) -0.1486 ( 88)  0.1150 ( 94)
 CRD  9=  -0.2023 (  2) -0.1752 (  4)  0.4962 (  7)  0.1031 (  8)  0.1397 ( 10)
          -0.2162 ( 18) -0.1926 ( 20)  0.2333 ( 23)  0.1350 ( 24) -0.1229 ( 28)
          -0.1092 ( 33)  0.2286 ( 38)  0.1550 ( 45) -0.1041 ( 54) -0.1123 ( 56)
           0.1772 ( 57)  0.1062 ( 58)  0.1262 ( 59)  0.1265 ( 60)  0.1183 ( 61)
           0.1175 ( 67) -0.1276 ( 73)  0.1352 ( 77) -0.1017 ( 84)
 CRD 10=  -0.3927 (  2) -0.1219 (  7) -0.2830 (  8) -0.4183 (  9) -0.1396 ( 10)
          -0.2813 ( 12) -0.1226 ( 13)  0.1608 ( 14) -0.2066 ( 18)  0.2028 ( 21)
           0.1422 ( 24) -0.1352 ( 25)  0.1501 ( 28)  0.1028 ( 30)  0.1029 ( 31)
          -0.1202 ( 32)  0.1192 ( 41) -0.1071 ( 44) -0.1087 ( 72)  0.1311 ( 75)
           0.1201 ( 79)
 CRD 11=   0.1629 ( 15)  0.3432 ( 40) -0.4470 ( 41) -0.4593 ( 48)  0.2186 ( 49)
           0.2381 ( 50)  0.1535 ( 64) -0.1799 ( 65) -0.1069 ( 66)  0.1549 ( 81)
          -0.1785 ( 82) -0.1054 ( 83)  0.1835 ( 95) -0.1499 ( 96)
 CRD 12=   0.1328 (  2)  0.3417 (  8)  0.1437 (  9) -0.1956 ( 12)  0.1220 ( 13)
           0.2181 ( 14) -0.1500 ( 18)  0.1125 ( 28)  0.3510 ( 31) -0.1166 ( 36)
          -0.3197 ( 37)  0.2030 ( 45)  0.4233 ( 47)  0.1121 ( 52)  0.1016 ( 55)
           0.1263 ( 66)
 CRD 13=  -0.1285 (  2) -0.1688 (  3) -0.2779 ( 12) -0.4846 ( 13)  0.2305 ( 14)
           0.1177 ( 18) -0.1018 ( 20) -0.1495 ( 21)  0.1150 ( 25)  0.1574 ( 26)
           0.1976 ( 32) -0.1018 ( 33)  0.1153 ( 36) -0.2630 ( 37)  0.1703 ( 40)
          -0.1213 ( 43)  0.1595 ( 47)  0.1470 ( 49) -0.1259 ( 51) -0.1148 ( 52)
           0.1023 ( 54)  0.1364 ( 62) -0.1401 ( 66) -0.1126 ( 75) -0.1407 ( 97)
 CRD 14=   0.1293 (  9) -0.2163 ( 10)  0.2971 ( 11)  0.1309 ( 13)  0.1739 ( 22)
          -0.1038 ( 28)  0.1332 ( 38)  0.1486 ( 41)  0.1971 ( 43) -0.1965 ( 44)
           0.1275 ( 48) -0.1023 ( 51)  0.1050 ( 54) -0.1204 ( 55) -0.1635 ( 59)
          -0.1101 ( 60) -0.1463 ( 61) -0.1784 ( 64) -0.2943 ( 66) -0.1108 ( 81)
          -0.2267 ( 83)  0.2209 ( 85)  0.2024 ( 88) -0.1055 ( 91) -0.1121 ( 93)
          -0.1081 ( 95) -0.2240 ( 97)
 CRD 15=  -0.1469 (  3)  0.2810 (  5) -0.4843 (  6) -0.1365 ( 11) -0.1349 ( 20)
           0.1574 ( 23) -0.1941 ( 24) -0.1752 ( 26)  0.1702 ( 28) -0.2108 ( 29)
           0.1321 ( 33) -0.1326 ( 38)  0.1367 ( 43) -0.2113 ( 44) -0.2249 ( 51)
          -0.1036 ( 52) -0.2080 ( 55)  0.1006 ( 69)  0.2005 ( 71)  0.2358 ( 79)
 CRD 16=  -0.3485 (  1)  0.4652 (  3)  0.2619 (  9) -0.1463 ( 13)  0.1231 ( 20)
          -0.1348 ( 22)  0.1447 ( 24) -0.1204 ( 28)  0.1474 ( 33)  0.2177 ( 35)
          -0.1430 ( 38) -0.1056 ( 53) -0.1089 ( 56)  0.1228 ( 57)  0.1535 ( 58)
          -0.2327 ( 67) -0.2674 ( 68)  0.1142 ( 71) -0.1396 ( 80) -0.1362 ( 94)
 CRD 17=   0.1630 (  1) -0.2152 (  5)  0.1926 ( 10) -0.1425 ( 13) -0.1780 ( 16)
           0.2328 ( 17)  0.1454 ( 23) -0.1842 ( 24)  0.1986 ( 28) -0.1399 ( 31)
           0.1215 ( 33)  0.1320 ( 37)  0.1089 ( 40)  0.1224 ( 41)  0.1703 ( 42)
          -0.1339 ( 47)  0.2019 ( 49) -0.1566 ( 50) -0.2044 ( 66)  0.2760 ( 70)
           0.1922 ( 74)  0.2536 ( 75)  0.1697 ( 76) -0.1373 ( 83) -0.1203 ( 92)
          -0.1509 ( 93) -0.1539 ( 97)
 CRD 18=   0.1353 (  5) -0.2763 ( 10)  0.2292 ( 11)  0.1025 ( 13) -0.3272 ( 16)
           0.3173 ( 17)  0.1147 ( 22) -0.1698 ( 23)  0.1779 ( 26)  0.1066 ( 40)
           0.1900 ( 42)  0.3087 ( 49) -0.2755 ( 50)  0.1788 ( 62)  0.1649 ( 63)
           0.1355 ( 66)  0.1616 ( 83)  0.1221 ( 85)  0.1058 ( 88)  0.1452 ( 90)
           0.1554 ( 91)  0.1313 ( 92)  0.1415 ( 93)  0.1754 ( 97)
 CRD 19=  -0.1224 (  9) -0.2852 ( 11)  0.1301 ( 13) -0.1518 ( 16)  0.3796 ( 17)
           0.1084 ( 24) -0.1614 ( 26) -0.1417 ( 28)  0.1268 ( 29) -0.1517 ( 33)
           0.1040 ( 41)  0.1604 ( 42)  0.2436 ( 49) -0.2220 ( 50)  0.1251 ( 53)
           0.1173 ( 56) -0.1128 ( 57) -0.2223 ( 62) -0.1660 ( 63) -0.1972 ( 70)
          -0.1604 ( 74) -0.1932 ( 75) -0.1564 ( 76) -0.1228 ( 90) -0.1018 ( 91)
 CRD 20=  -0.5753 ( 15) -0.6425 ( 16) -0.4827 ( 17)
 CRD 21=  -0.6226 (  1) -0.5846 (  3)  0.1392 (  6)  0.1079 ( 28) -0.2649 ( 34)
          -0.1081 ( 70)  0.1231 ( 73) -0.1182 ( 74)  0.1328 ( 75)  0.1228 ( 76)
          -0.1055 ( 77) -0.1033 ( 79)
 CRD 22=   0.4949 (  5)  0.5100 (  6) -0.2920 ( 10) -0.4183 ( 11)  0.1940 ( 39)
          -0.1208 ( 46) -0.1260 ( 86)  0.1529 ( 87)
 CRD 23=   0.4219 (  5)  0.2543 (  6) -0.1015 (  7)  0.4934 ( 10)  0.4845 ( 11)
           0.1450 ( 39)  0.1914 ( 46) -0.1161 ( 62) -0.1106 ( 72) -0.1277 ( 84)
           0.1352 ( 89) -0.1079 ( 90)
 CRD 24=  -0.2036 (  1)  0.2415 (  3)  0.3706 ( 10) -0.3193 ( 11) -0.1312 ( 15)
          -0.1426 ( 20)  0.1613 ( 22) -0.1329 ( 35)  0.1522 ( 38) -0.1146 ( 43)
           0.1360 ( 55)  0.1153 ( 67)  0.2001 ( 72)  0.1789 ( 73)  0.1936 ( 77)
           0.1724 ( 78)  0.2075 ( 84)  0.1282 ( 85)  0.2536 ( 86)  0.1999 ( 87)
           0.1207 ( 88)  0.2461 ( 89)
 CRD 25=   0.1037 (  3) -0.1188 (  5)  0.1402 (  6)  0.5835 ( 15) -0.2670 ( 16)
          -0.3206 ( 17) -0.1310 ( 48) -0.2199 ( 64)  0.2009 ( 65)  0.1094 ( 72)
           0.1160 ( 73)  0.1150 ( 77)  0.1216 ( 78) -0.2263 ( 81)  0.1945 ( 82)
          -0.2322 ( 95)  0.1886 ( 96)
 CRD 26=   0.1670 (  1) -0.1834 (  3)  0.2813 (  5) -0.3278 (  6) -0.1667 ( 11)
           0.2253 ( 15) -0.1100 ( 16) -0.1376 ( 17)  0.1026 ( 29)  0.1520 ( 51)
           0.1370 ( 55) -0.1157 ( 64) -0.1338 ( 67) -0.1504 ( 68) -0.1540 ( 71)
          -0.1916 ( 72) -0.2082 ( 73) -0.2137 ( 77) -0.2303 ( 78) -0.1761 ( 79)
          -0.1042 ( 81)  0.1908 ( 84)  0.1212 ( 85)  0.1758 ( 86)  0.1735 ( 87)
           0.1038 ( 88)  0.1584 ( 89) -0.1141 ( 95)
 CRD 27=  -0.2071 (  2)  0.1152 ( 10)  0.5925 ( 13)  0.3011 ( 18) -0.1011 ( 29)
           0.1266 ( 31)  0.1040 ( 34)  0.1217 ( 36) -0.1951 ( 37) -0.2369 ( 45)
           0.1390 ( 63) -0.1134 ( 66) -0.1313 ( 72) -0.1046 ( 73)  0.1352 ( 92)
          -0.1088 ( 95) -0.1745 ( 97)
 CRD 28=  -0.1409 (  2) -0.1073 (  4) -0.1284 (  5)  0.6491 (  9) -0.1554 ( 12)
           0.1776 ( 13)  0.1370 ( 14)  0.1433 ( 16) -0.1506 ( 17)  0.1318 ( 24)
          -0.1398 ( 31) -0.1178 ( 33)  0.1938 ( 37)  0.1012 ( 46) -0.1666 ( 47)
           0.1008 ( 55) -0.1253 ( 70) -0.1409 ( 74)  0.1683 ( 89)
 CRD 29=   0.2404 (  1)  0.1507 (  2) -0.1596 (  3)  0.1671 (  6) -0.3003 (  8)
           0.2063 (  9) -0.1729 ( 11) -0.1220 ( 13) -0.2200 ( 18) -0.2180 ( 23)
           0.1100 ( 35)  0.1819 ( 45)  0.1388 ( 46)  0.2532 ( 63) -0.1732 ( 64)
           0.1088 ( 72) -0.1263 ( 81)  0.2861 ( 92)  0.2042 ( 93) -0.2167 ( 95)
          -0.1075 ( 96)
 CRD 30=   0.1458 (  2)  0.1349 (  3) -0.1260 (  6) -0.1093 (  8) -0.1625 (  9)
          -0.1494 ( 10)  0.1077 ( 11) -0.1107 ( 12)  0.1611 ( 13) -0.1651 ( 14)
           0.1972 ( 16) -0.2629 ( 17) -0.1663 ( 18) -0.1184 ( 30) -0.1646 ( 31)
           0.1465 ( 32) -0.1277 ( 34)  0.1153 ( 40)  0.1650 ( 41)  0.1493 ( 42)
           0.2551 ( 45)  0.1394 ( 49) -0.1127 ( 54)  0.1279 ( 61)  0.1551 ( 64)
           0.1463 ( 65) -0.1527 ( 66)  0.1199 ( 72) -0.1018 ( 79)  0.1194 ( 81)
           0.1106 ( 82) -0.1884 ( 83)  0.1544 ( 92) -0.2566 ( 97)
 CRD 31=  -0.1435 (  1) -0.1640 (  2)  0.2321 (  3)  0.1929 (  5) -0.2215 (  6)
           0.1727 (  7)  0.2426 (  8)  0.1089 (  9) -0.2142 ( 10)  0.1601 ( 11)
          -0.1174 ( 12) -0.2050 ( 13)  0.1321 ( 18) -0.1394 ( 22) -0.1270 ( 23)
          -0.1585 ( 26)  0.1436 ( 28)  0.1704 ( 44) -0.2138 ( 45)  0.1328 ( 51)
          -0.1068 ( 58)  0.1087 ( 61) -0.1562 ( 62)  0.1259 ( 67)  0.1346 ( 75)
           0.1008 ( 80) -0.1124 ( 81) -0.1264 ( 85) -0.1283 ( 86) -0.1405 ( 91)
           0.1627 ( 92)  0.1089 ( 94) -0.1990 ( 95) -0.1098 ( 96)
 CRD 32=   0.1922 (  2)  0.1436 (  3) -0.1769 (  7) -0.2406 (  8)  0.1366 ( 11)
           0.2274 ( 12)  0.1192 ( 13) -0.1238 ( 16)  0.2227 ( 17) -0.1051 ( 20)
           0.1572 ( 23)  0.1224 ( 24)  0.1114 ( 26)  0.1476 ( 28) -0.1436 ( 34)
          -0.1051 ( 37)  0.1817 ( 39) -0.1066 ( 41) -0.1604 ( 43)  0.1004 ( 45)
           0.1294 ( 50)  0.1030 ( 55) -0.1242 ( 63) -0.1048 ( 64) -0.1267 ( 70)
          -0.1842 ( 74)  0.1636 ( 75)  0.1062 ( 76) -0.1084 ( 84) -0.1424 ( 85)
           0.1140 ( 87)  0.2179 ( 89)  0.1247 ( 90) -0.1646 ( 93) -0.1532 ( 95)
          -0.1090 ( 96)
 CRD 33=   0.2358 (  1) -0.1545 (  3)  0.2127 (  4) -0.2200 (  7)  0.1975 (  8)
          -0.1644 (  9) -0.1590 ( 10)  0.2157 ( 18) -0.1861 ( 20) -0.1128 ( 21)
          -0.1675 ( 22) -0.1399 ( 29)  0.1041 ( 33)  0.2267 ( 35)  0.1716 ( 38)
          -0.1029 ( 45)  0.1355 ( 46) -0.1102 ( 62) -0.2551 ( 68) -0.1358 ( 70)
           0.2126 ( 72)  0.1712 ( 77) -0.1315 ( 78) -0.1124 ( 84) -0.1093 ( 85)
           0.1287 ( 87)  0.1318 ( 88)  0.2364 ( 89) -0.1588 ( 90)
 CRD 34=   0.1802 (  2) -0.2100 (  4) -0.1093 (  5)  0.1070 ( 10)  0.1157 ( 12)
          -0.1788 ( 13) -0.3009 ( 14)  0.1359 ( 15)  0.1336 ( 24)  0.1497 ( 28)
          -0.1770 ( 29)  0.2014 ( 31) -0.1508 ( 33) -0.1248 ( 37)  0.1289 ( 41)
           0.1029 ( 43) -0.1056 ( 45)  0.1342 ( 47)  0.1453 ( 48)  0.2451 ( 64)
           0.1095 ( 65) -0.1064 ( 70) -0.1589 ( 72) -0.1110 ( 73) -0.1232 ( 74)
           0.1271 ( 75)  0.1103 ( 76)  0.1323 ( 79)  0.2025 ( 81) -0.1269 ( 83)
           0.1269 ( 87)  0.2328 ( 95)
 CRD 35=   0.1360 (  1) -0.2755 (  2)  0.2333 (  5) -0.1012 (  6) -0.1644 (  7)
          -0.3224 (  8)  0.2685 (  9)  0.1446 ( 11)  0.1356 ( 13) -0.1390 ( 16)
           0.1085 ( 21)  0.1044 ( 29)  0.1716 ( 31)  0.1132 ( 33) -0.1532 ( 37)
           0.1140 ( 38) -0.1048 ( 39)  0.1127 ( 44) -0.1731 ( 46) -0.1140 ( 49)
           0.1396 ( 51) -0.1083 ( 63)  0.1537 ( 64)  0.1437 ( 67)  0.1013 ( 71)
           0.2484 ( 72)  0.1245 ( 73)  0.1105 ( 81) -0.1109 ( 86) -0.1161 ( 88)
          -0.1531 ( 89) -0.1535 ( 92)  0.1435 ( 95)
 CRD 36=  -0.1169 (  1)  0.1549 (  4) -0.1410 ( 10)  0.2630 ( 14)  0.2457 ( 15)
          -0.3970 ( 16)  0.1410 ( 17) -0.1019 ( 24) -0.1035 ( 40) -0.1289 ( 42)
           0.1643 ( 46)  0.2190 ( 48) -0.3093 ( 49)  0.1090 ( 50) -0.1165 ( 51)
           0.2307 ( 64)  0.1088 ( 70) -0.1115 ( 76)  0.1815 ( 81) -0.1253 ( 83)
           0.1047 ( 86)  0.1234 ( 89)  0.1304 ( 92)  0.1062 ( 93)  0.1534 ( 95)
          -0.1534 ( 97)
 CRD 37=   0.1145 (  3) -0.2483 (  4)  0.1104 (  5)  0.1056 (  8) -0.1390 (  9)
           0.1529 ( 10) -0.3237 ( 12)  0.1750 ( 13)  0.3204 ( 14)  0.1573 ( 15)
          -0.1531 ( 16) -0.1839 ( 21)  0.1187 ( 28) -0.2145 ( 31) -0.1554 ( 34)
           0.1197 ( 37)  0.1194 ( 45) -0.1236 ( 47)  0.1297 ( 48) -0.1256 ( 49)
           0.1328 ( 54) -0.1834 ( 65) -0.1400 ( 70) -0.1236 ( 74)  0.1333 ( 75)
           0.1497 ( 76) -0.1169 ( 82) -0.1500 ( 89)  0.1163 ( 98)
 CRD 38=  -0.1085 (  2)  0.1019 (  3)  0.1595 ( 12) -0.2246 ( 14)  0.2638 ( 15)
          -0.3175 ( 17)  0.2228 ( 48) -0.2954 ( 50) -0.3566 ( 65) -0.1107 ( 79)
          -0.3231 ( 82)  0.1205 ( 83) -0.1314 ( 84) -0.3690 ( 96)
 CRD 39=  -0.2040 (  1)  0.2577 (  2)  0.2483 (  4) -0.1569 (  8)  0.1035 ( 11)
          -0.2184 ( 12)  0.1512 ( 13) -0.1300 ( 18) -0.1572 ( 22) -0.1240 ( 25)
           0.1149 ( 32) -0.1138 ( 33)  0.2215 ( 34)  0.1655 ( 44)  0.1245 ( 45)
           0.1749 ( 51) -0.1026 ( 61) -0.1057 ( 65)  0.1111 ( 70) -0.1237 ( 71)
          -0.1274 ( 72) -0.1568 ( 73)  0.1776 ( 74)  0.1549 ( 77)  0.1255 ( 78)
           0.1586 ( 79) -0.1036 ( 80) -0.1539 ( 85) -0.1815 ( 86)  0.2427 ( 87)
          -0.1548 ( 90) -0.1248 ( 92)
 CRD 40=   0.1710 (  1) -0.2244 (  3) -0.1678 (  4)  0.1336 (  7) -0.1711 ( 10)
           0.1793 ( 11)  0.1061 ( 15)  0.1804 ( 20)  0.1156 ( 23)  0.1556 ( 24)
          -0.1022 ( 26) -0.1000 ( 28) -0.1647 ( 29) -0.1268 ( 38)  0.1573 ( 51)
          -0.1515 ( 54)  0.1397 ( 55)  0.1164 ( 58)  0.1634 ( 61) -0.1140 ( 65)
          -0.1398 ( 67) -0.1124 ( 70)  0.1399 ( 73) -0.1007 ( 75)  0.1006 ( 77)
           0.2446 ( 78)  0.1678 ( 79) -0.1382 ( 82)  0.1814 ( 84)  0.1639 ( 86)
          -0.1602 ( 88) -0.2254 ( 96) -0.1745 ( 98)
 CRD 41=   0.1347 (  1) -0.1369 (  2) -0.1386 (  5) -0.1786 (  6)  0.3290 (  7)
          -0.1679 ( 19) -0.1040 ( 23)  0.1372 ( 25) -0.1149 ( 28) -0.1344 ( 34)
          -0.1024 ( 35)  0.2476 ( 39)  0.1443 ( 54)  0.1904 ( 58) -0.1553 ( 61)
          -0.1828 ( 67)  0.1847 ( 68)  0.1223 ( 71)  0.3310 ( 73)  0.1539 ( 76)
          -0.2481 ( 77)  0.1194 ( 78) -0.1007 ( 80) -0.1196 ( 84) -0.1353 ( 85)
          -0.1241 ( 86) -0.2012 ( 90)  0.1441 ( 96)
 CRD 42=   0.1155 (  2) -0.1735 (  4)  0.1921 (  5) -0.1060 (  8) -0.1751 ( 10)
           0.2022 ( 12)  0.1541 ( 19) -0.1785 ( 27)  0.1062 ( 28) -0.1196 ( 33)
          -0.1305 ( 35) -0.1102 ( 37) -0.1194 ( 39) -0.1099 ( 43)  0.1963 ( 46)
           0.1886 ( 54)  0.2052 ( 55) -0.1334 ( 61)  0.1534 ( 67) -0.1767 ( 71)
           0.1170 ( 74)  0.1856 ( 76)  0.1412 ( 77) -0.1011 ( 80)  0.1901 ( 86)
          -0.2948 ( 87) -0.2009 ( 88) -0.2558 ( 90) -0.1115 ( 91)  0.1190 ( 96)
           0.1094 ( 97)
 CRD 43=   0.1358 (  3) -0.1366 (  5)  0.2428 (  6) -0.1089 (  8) -0.1345 ( 10)
           0.1067 ( 11) -0.1158 ( 20)  0.1751 ( 22) -0.1283 ( 24) -0.1953 ( 26)
           0.1153 ( 35) -0.1078 ( 37) -0.1582 ( 38)  0.1482 ( 44) -0.2356 ( 52)
          -0.1143 ( 55) -0.1308 ( 58)  0.1759 ( 60)  0.1753 ( 69)  0.1747 ( 71)
          -0.1958 ( 77) -0.2690 ( 78)  0.2849 ( 84)  0.1919 ( 86)  0.1401 ( 87)
          -0.1860 ( 90) -0.1454 ( 91)  0.1364 ( 98)
 CRD 44=   0.1030 (  3) -0.1193 ( 33)  0.1688 ( 53)  0.1728 ( 56) -0.1921 ( 57)
           0.2327 ( 58)  0.1107 ( 61) -0.1508 ( 63)  0.1292 ( 64)  0.1261 ( 65)
           0.1363 ( 69) -0.1381 ( 70)  0.2867 ( 74)  0.3914 ( 76) -0.2520 ( 80)
           0.1156 ( 90) -0.2561 ( 94) -0.4441 ( 98)
 CRD 45=  -0.4170 ( 59)  0.4020 ( 81)  0.3872 ( 82)  0.4051 ( 83) -0.4126 ( 91)
           0.1126 ( 92) -0.3514 ( 93)

 THE DETERMINANT OF THE G MATRIX IS 10**(    -9)


                     --------------------
                     INTERNAL COORDINATES
                     --------------------

                 - - ATOMS - -         COORDINATE      COORDINATE
 NO.   TYPE    I  J  K  L  M  N        (BOHR,RAD)       (ANG,DEG)
 ----------------------------------------------------------------
   1 STRETCH   1  5                     2.0992553       1.1108782
   2 STRETCH   1  3                     2.8722838       1.5199473
   3 STRETCH   1  4                     2.1055911       1.1142309
   4 STRETCH   1  2                     2.8809810       1.5245496
   5 STRETCH   2  7                     2.0989364       1.1107094
   6 STRETCH   2  8                     2.1055705       1.1142200
   7 STRETCH   2  6                     2.8730667       1.5203615
   8 STRETCH   3  9                     2.9035218       1.5364777
   9 STRETCH   3 17                     1.9501998       1.0320014
  10 STRETCH   6 11                     2.0983115       1.1103787
  11 STRETCH   6 10                     2.1074322       1.1152052
  12 STRETCH   6  9                     2.9029732       1.5361874
  13 STRETCH   9 16                     1.9502038       1.0320035
  14 STRETCH   9 12                     7.9335026       4.1982291
  15 STRETCH  12 15                     2.2319879       1.1811172
  16 STRETCH  12 14                     2.2319687       1.1811071
  17 STRETCH  12 13                     2.2320491       1.1811496
  18 BEND      1  3 17                  2.2287825     127.6998280
  19 BEND      1  2  6                  1.7583712     100.7472502
  20 BEND      1  2  8                  1.9139811     109.6630372
  21 BEND      1  3  9                  1.8256072     104.5995896
  22 BEND      1  2  7                  1.9913942     114.0984819
  23 BEND      2  6 11                  2.0354362     116.6219039
  24 BEND      2  1  4                  1.9136688     109.6451442
  25 BEND      2  1  3                  1.7593847     100.8053191
  26 BEND      2  6 10                  1.8389201     105.3623597
  27 BEND      2  6  9                  1.8251392     104.5727704
  28 BEND      2  1  5                  1.9922090     114.1451648
  29 BEND      3  1  5                  1.9794315     113.4130690
  30 BEND      3  9 12                  1.2013822      68.8341309
  31 BEND      3  9 16                  2.2268858     127.5911583
  32 BEND      3  9  6                  1.8294122     104.8175985
  33 BEND      3  1  4                  1.9142714     109.6796743
  34 BEND      4  1  5                  1.9005466     108.8933004
  35 BEND      6  2  7                  1.9798819     113.4388780
  36 BEND      6  9 12                  3.0120577     172.5781913
  37 BEND      6  9 16                  2.2268873     127.5912432
  38 BEND      6  2  8                  1.9147667     109.7080529
  39 BEND      7  2  8                  1.9010659     108.9230522
  40 BEND      9 12 13                  0.6623810      37.9516335
  41 BEND      9 12 14                  2.4914229     142.7480171
  42 BEND      9 12 15                  1.5081926      86.4130694
  43 BEND      9  6 10                  1.8707960     107.1887130
  44 BEND      9  6 11                  2.0090237     115.1085800
  45 BEND      9  3 17                  2.2287956     127.7005824
  46 BEND     10  6 11                  1.8718265     107.2477605
  47 BEND     12  9 16                  1.0276564      58.8803759
  48 BEND     13 12 14                  2.0921390     119.8707371
  49 BEND     13 12 15                  2.0899657     119.7462130
  50 BEND     14 12 15                  2.0901998     119.7596294
  51 TORSION   1  2  6 11               2.9403520     168.4697589
  52 TORSION   1  2  6  9               0.6998647      40.0992957
  53 TORSION   1  3  9 12               2.8059942     160.7716247
  54 TORSION   1  3  9 16               2.8766143     164.8178565
  55 TORSION   1  2  6 10              -1.2694813     -72.7359233
  56 TORSION   1  3  9  6              -0.2649945     -15.1830664
  57 TORSION   2  1  3  9               0.6964691      39.9047406
  58 TORSION   2  1  3 17              -2.4451245    -140.0953126
  59 TORSION   2  6  9 12              -0.8051758     -46.1331779
  60 TORSION   2  6  9  3              -0.2708188     -15.5167748
  61 TORSION   2  6  9 16               2.8707577     164.4823023
  62 TORSION   3  9  6 10               1.6757004      96.0105612
  63 TORSION   3  9  6 11              -2.5272184    -144.7989482
  64 TORSION   3  9 12 13               2.8049265     160.7104489
  65 TORSION   3  9 12 14               1.5897392      91.0853483
  66 TORSION   3  9 12 15              -0.8129055     -46.5760527
  67 TORSION   3  1  2  8               1.1587471      66.3913163
  68 TORSION   3  1  2  7              -2.9866619    -171.1231199
  69 TORSION   3  1  2  6              -0.8591197     -49.2239302
  70 TORSION   4  1  3  9              -1.3207635     -75.6741743
  71 TORSION   4  1  2  6               1.1585626      66.3807456
  72 TORSION   4  1  2  8              -3.1067560    -178.0040078
  73 TORSION   4  1  2  7              -0.9689796     -55.5184440
  74 TORSION   4  1  3 17               1.8208282     104.3257725
  75 TORSION   5  1  3  9               2.8334783     162.3463483
  76 TORSION   5  1  3 17              -0.3081153     -17.6537048
  77 TORSION   5  1  2  8              -0.9693167     -55.5377581
  78 TORSION   5  1  2  7               1.1684596      66.9478057
  79 TORSION   5  1  2  6              -2.9871835    -171.1530047
  80 TORSION   6  9  3 17               2.8765991     164.8169867
  81 TORSION   6  9 12 13              -2.9220519    -167.4212437
  82 TORSION   6  9 12 14               2.1459461     122.9536557
  83 TORSION   6  9 12 15              -0.2566986     -14.7077453
  84 TORSION   7  2  6 11              -1.2072183     -69.1685155
  85 TORSION   7  2  6  9               2.8354797     162.4610213
  86 TORSION   7  2  6 10               0.8661336      49.6258023
  87 TORSION   8  2  6 11               0.9230720      52.8881288
  88 TORSION   8  2  6  9              -1.3174153     -75.4823344
  89 TORSION   8  2  6 10               2.9964240     171.6824466
  90 TORSION  10  6  9 16              -1.4659084     -83.9903617
  91 TORSION  10  6  9 12               1.1413434      65.3941581
  92 TORSION  11  6  9 16               0.6143581      35.2001289
  93 TORSION  11  6  9 12              -3.0615754    -175.4153513
  94 TORSION  12  9  3 17              -0.3355975     -19.2283221
  95 TORSION  13 12  9 16              -0.2713091     -15.5448683
  96 TORSION  14 12  9 16              -1.4864964     -85.1699689
  97 TORSION  15 12  9 16               2.3940442     137.1686301
  98 TORSION  16  9  3 17              -0.2649775     -15.1820903

     ------------------------------------------
     THE POINT GROUP IS C1 , NAXIS= 0, ORDER= 1
     ------------------------------------------

     DIMENSIONS OF THE SYMMETRY SUBSPACES ARE
 A   =   41

 ..... DONE SETTING UP THE RUN .....
 STEP CPU TIME =     0.05 TOTAL CPU TIME =          0.0 (      0.0 MIN)
 TOTAL WALL CLOCK TIME=          0.1 SECONDS, CPU UTILIZATION IS    83.33%


          -----------------------------
          STATIONARY POINT LOCATION RUN
          -----------------------------

 OBTAINING INITIAL HESSIAN, HESS=CALC    

     ---------------------------------
     HESSIAN MATRIX CONTROL PARAMETERS
     ---------------------------------
     METHOD=ANALYTIC   NVIB  =       2   VIBSIZ= 0.01000
     RDHESS=       F   PURIFY=       F   PRTIFC=       F
     VIBANL=       F   DECOMP=       F   PROJCT=       F
     SCLFAC= 1.00000   PRTSCN=       F   NPRT  =       0
     PULCOR=       F   NPUN  =       0   REDOVB=       T
     HSSTYP=GENERAL 
 Old integral subroutine is used

     ------------------------------
     CPHF RESPONSE SOLUTION OPTIONS
     ------------------------------
     POLAR  =       F     NWORD  =       0
     CPHF   =AO      

          ********************
          1 ELECTRON INTEGRALS
          ********************
 ...... END OF ONE-ELECTRON INTEGRALS ......
 STEP CPU TIME =     0.01 TOTAL CPU TIME =          0.1 (      0.0 MIN)
 TOTAL WALL CLOCK TIME=          0.1 SECONDS, CPU UTILIZATION IS    85.71%

          -------------
          GUESS OPTIONS
          -------------
          GUESS =HUCKEL            NORB  =       0          NORDER=       0
          MIX   =       F          PRTMO =       F          PUNMO =       F
          TOLZ  = 1.0E-08          TOLE  = 1.0E-05
          SYMDEN=       F          PURIFY=       F

 INITIAL GUESS ORBITALS GENERATED BY HUCKEL   ROUTINE.
 HUCKEL GUESS REQUIRES     30318 WORDS.

 SYMMETRIES FOR INITIAL GUESS ORBITALS FOLLOW.   BOTH SET(S).
    23 ORBITALS ARE OCCUPIED (    6 CORE ORBITALS).
     7=A        8=A        9=A       10=A       11=A       12=A       13=A   
    14=A       15=A       16=A       17=A       18=A       19=A       20=A   
    21=A       22=A       23=A       24=A       25=A       26=A       27=A   
    28=A       29=A       30=A       31=A       32=A       33=A   
 ...... END OF INITIAL ORBITAL SELECTION ......
 STEP CPU TIME =     0.02 TOTAL CPU TIME =          0.1 (      0.0 MIN)
 TOTAL WALL CLOCK TIME=          0.1 SECONDS, CPU UTILIZATION IS    88.89%

                    ----------------------
                    AO INTEGRAL TECHNOLOGY
                    ----------------------
     S,P,L SHELL ROTATED AXIS INTEGRALS, REPROGRAMMED BY
        KAZUYA ISHIMURA (IMS) AND JOSE SIERRA (SYNSTAR).
     S,P,D,L SHELL ROTATED AXIS INTEGRALS PROGRAMMED BY
        KAZUYA ISHIMURA (INSTITUTE FOR MOLECULAR SCIENCE).
     S,P,D,F,G SHELL TO TOTAL QUARTET ANGULAR MOMENTUM SUM 5,
        ERIC PROGRAM BY GRAHAM FLETCHER (ELORET AND NASA ADVANCED
        SUPERCOMPUTING DIVISION, AMES RESEARCH CENTER).
     S,P,D,F,G,L SHELL GENERAL RYS QUADRATURE PROGRAMMED BY
        MICHEL DUPUIS (PACIFIC NORTHWEST NATIONAL LABORATORY).

          --------------------
          2 ELECTRON INTEGRALS
          --------------------

 THE -PK- OPTION IS OFF, THE INTEGRALS ARE NOT IN SUPERMATRIX FORM.
 STORING   15000 INTEGRALS/RECORD ON DISK, USING 12 BYTES/INTEGRAL.
 TWO ELECTRON INTEGRAL EVALUATION REQUIRES   89632 WORDS OF MEMORY.
 SCHWARZ INEQUALITY OVERHEAD:       853 INTEGRALS, T=        0.00
 II,JST,KST,LST =  1  1  1  1 NREC =         1 INTLOC =    1
 II,JST,KST,LST =  2  1  1  1 NREC =         1 INTLOC =    2
 II,JST,KST,LST =  3  1  1  1 NREC =         1 INTLOC =   34
 II,JST,KST,LST =  4  1  1  1 NREC =         1 INTLOC =  144
 II,JST,KST,LST =  5  1  1  1 NREC =         1 INTLOC = 1366
 II,JST,KST,LST =  6  1  1  1 NREC =         1 INTLOC = 1944
 II,JST,KST,LST =  7  1  1  1 NREC =         1 INTLOC = 6812
 II,JST,KST,LST =  8  1  1  1 NREC =         1 INTLOC = 8846
 II,JST,KST,LST =  9  1  1  1 NREC =         1 INTLOC =11285
 II,JST,KST,LST = 10  1  1  1 NREC =         1 INTLOC =13757
 II,JST,KST,LST = 11  1  1  1 NREC =         3 INTLOC =  736
 II,JST,KST,LST = 12  1  1  1 NREC =         3 INTLOC = 6733
 II,JST,KST,LST = 13  1  1  1 NREC =         3 INTLOC =13565
 II,JST,KST,LST = 14  1  1  1 NREC =         4 INTLOC = 5280
 II,JST,KST,LST = 15  1  1  1 NREC =         7 INTLOC = 1201
 II,JST,KST,LST = 16  1  1  1 NREC =         7 INTLOC =14495
 II,JST,KST,LST = 17  1  1  1 NREC =         8 INTLOC =14160
 II,JST,KST,LST = 18  1  1  1 NREC =         9 INTLOC = 2085
 II,JST,KST,LST = 19  1  1  1 NREC =        13 INTLOC = 1447
 II,JST,KST,LST = 20  1  1  1 NREC =        14 INTLOC = 6089
 II,JST,KST,LST = 21  1  1  1 NREC =        15 INTLOC = 3596
 II,JST,KST,LST = 22  1  1  1 NREC =        16 INTLOC = 9395
 II,JST,KST,LST = 23  1  1  1 NREC =        18 INTLOC = 7314
 SCHWARZ INEQUALITY TEST SKIPPED       10495 INTEGRAL BLOCKS.
 TOTAL NUMBER OF NONZERO TWO-ELECTRON INTEGRALS =              292965
         20 INTEGRAL RECORDS WERE STORED ON DISK FILE  8.
  ...... END OF TWO-ELECTRON INTEGRALS .....
 STEP CPU TIME =     0.09 TOTAL CPU TIME =          0.2 (      0.0 MIN)
 TOTAL WALL CLOCK TIME=          0.2 SECONDS, CPU UTILIZATION IS    85.00%

          --------------------------
                 RHF SCF CALCULATION
          --------------------------

     NUCLEAR ENERGY =       209.7604799306
     MAXIT =   30     NPUNCH=    2
     EXTRAP=T  DAMP=F  SHIFT=F  RSTRCT=F  DIIS=F  DEM=F  SOSCF=T
     DENSITY MATRIX CONV=  1.00E-05
     SOSCF WILL OPTIMIZE     414 ORBITAL ROTATIONS, SOGTOL=   0.250
     MEMORY REQUIRED FOR RHF ITERS=     43997 WORDS.

 ITER EX DEM     TOTAL ENERGY        E CHANGE  DENSITY CHANGE     ORB. GRAD
   1  0  0     -217.3989490540  -217.3989490540   0.300174616   0.000000000
          ---------------START SECOND ORDER SCF---------------
   2  1  0     -217.6471244483    -0.2481753943   0.067933995   0.018187293
   3  2  0     -217.6547842108    -0.0076597625   0.025925141   0.005232780
   4  3  0     -217.6553782096    -0.0005939988   0.009569011   0.003220924
   5  4  0     -217.6554410126    -0.0000628030   0.002628779   0.001087974
   6  5  0     -217.6554505197    -0.0000095071   0.000640386   0.000134207
   7  6  0     -217.6554509990    -0.0000004793   0.000545996   0.000083814
   8  7  0     -217.6554511877    -0.0000001887   0.000082442   0.000020446
   9  8  0     -217.6554511989    -0.0000000112   0.000028488   0.000010559
  10  9  0     -217.6554512010    -0.0000000021   0.000003743   0.000002125
  11 10  0     -217.6554512010    -0.0000000000   0.000002117   0.000000645

          -----------------
          DENSITY CONVERGED
          -----------------
     TIME TO FORM FOCK OPERATORS=       0.1 SECONDS (       0.0 SEC/ITER)
     TIME TO SOLVE SCF EQUATIONS=       0.0 SECONDS (       0.0 SEC/ITER)

 FINAL RHF ENERGY IS     -217.6554512010 AFTER  11 ITERATIONS

          ------------
          EIGENVECTORS
          ------------

                      1          2          3          4          5
                  -11.0419   -11.0413   -11.0405   -11.0027   -11.0015
                     A          A          A          A          A   
    1  C  1  S    0.971372   0.191129   0.062465   0.000929   0.003304
    2  C  1  S    0.037533   0.001619   0.001372   0.000215  -0.005358
    3  C  1  X    0.001271  -0.003196  -0.000826  -0.000146   0.000095
    4  C  1  Y   -0.000118  -0.001758  -0.000047   0.000009   0.003951
    5  C  1  Z   -0.000438   0.001764   0.000098  -0.000078   0.001155
    6  C  2  S   -0.197883   0.959252   0.157111   0.000862   0.001672
    7  C  2  S   -0.012857   0.035773  -0.000172   0.000141   0.000012
    8  C  2  X    0.003657   0.001113  -0.002702   0.000054   0.000091
    9  C  2  Y    0.001348  -0.000895   0.002728   0.000139   0.000482
   10  C  2  Z   -0.001744   0.000007  -0.001351   0.000060   0.000114
   11  C  3  S   -0.001990  -0.001807  -0.001072  -0.011547   0.992373
   12  C  3  S   -0.005732  -0.001270  -0.000171  -0.005634   0.033867
   13  C  3  X    0.000356  -0.000219  -0.000019  -0.003772  -0.000130
   14  C  3  Y   -0.004010  -0.000950  -0.000323   0.001108   0.000248
   15  C  3  Z   -0.001240  -0.000065  -0.000061  -0.000370   0.000075
   16  H  4  S   -0.006634  -0.001286  -0.000364  -0.000091  -0.000174
   17  H  5  S   -0.006558  -0.001144  -0.000575  -0.000115   0.000028
   18  C  6  S   -0.030190  -0.165365   0.977630   0.004066   0.000786
   19  C  6  S   -0.000008  -0.011829   0.035584  -0.005220   0.000136
   20  C  6  X   -0.000179   0.002823  -0.000127   0.001791   0.000040
   21  C  6  Y    0.000669  -0.002903  -0.000356   0.003643   0.000035
   22  C  6  Z   -0.000553   0.001223   0.000756   0.000348   0.000007
   23  H  7  S    0.001443  -0.006469  -0.000934  -0.000108  -0.000202
   24  H  8  S    0.001377  -0.006517  -0.001058  -0.000085  -0.000234
   25  C  9  S   -0.000626  -0.000442  -0.003261   0.992387   0.012429
   26  C  9  S    0.000285   0.001127  -0.005615   0.033807  -0.004847
   27  C  9  X    0.000067   0.000399  -0.002032   0.000085   0.003850
   28  C  9  Y    0.000031   0.000522  -0.003667   0.000052  -0.000832
   29  C  9  Z   -0.000104   0.000128  -0.000252   0.000031   0.000406
   30  H 10  S    0.000276   0.001128  -0.006717  -0.000228  -0.000015
   31  H 11  S    0.000004   0.001193  -0.006555  -0.000004  -0.000055
   32  B 12  S    0.000001   0.000000  -0.000000   0.000001  -0.000011
   33  B 12  S   -0.000002  -0.000002   0.000007  -0.000018   0.000061
   34  B 12  X    0.000002  -0.000001   0.000005  -0.000014   0.000002
   35  B 12  Y   -0.000007  -0.000001  -0.000002  -0.000004   0.000055
   36  B 12  Z    0.000000   0.000000  -0.000002   0.000004  -0.000033
   37  H 13  S   -0.000008   0.000004  -0.000019   0.000058  -0.000032
   38  H 14  S   -0.000001  -0.000000  -0.000002  -0.000000  -0.000010
   39  H 15  S    0.000002  -0.000000   0.000001   0.000001   0.000023
   40  H 16  S   -0.000067  -0.000110   0.000033  -0.007212  -0.000072
   41  H 17  S    0.000085  -0.000040  -0.000080   0.000098  -0.007207

                      6          7          8          9         10
                   -7.4147    -1.0689    -0.9016    -0.8831    -0.7341
                     A          A          A          A          A   
    1  C  1  S    0.000002  -0.118069   0.144944   0.029923   0.098758
    2  C  1  S   -0.000012   0.311851  -0.422635  -0.085270  -0.312568
    3  C  1  X    0.000009   0.059517   0.029844  -0.054655   0.094941
    4  C  1  Y    0.000005  -0.023966   0.032878  -0.115105  -0.009204
    5  C  1  Z    0.000008  -0.026409   0.008033   0.012532  -0.121773
    6  C  2  S   -0.000000  -0.126701  -0.011631   0.136884  -0.114472
    7  C  2  S    0.000001   0.333417   0.033907  -0.401622   0.364630
    8  C  2  X   -0.000000  -0.012163   0.134521   0.001655   0.021110
    9  C  2  Y   -0.000001  -0.063311  -0.026654  -0.028500   0.086337
   10  C  2  Z   -0.000000   0.033731  -0.005227  -0.007386  -0.131539
   11  C  3  S   -0.000019  -0.088648   0.084621  -0.128557  -0.059084
   12  C  3  S    0.000198   0.229113  -0.237259   0.373989   0.185552
   13  C  3  X   -0.000146   0.036332   0.058243   0.046346   0.024173
   14  C  3  Y   -0.000052   0.047364  -0.074187  -0.051089  -0.120467
   15  C  3  Z   -0.000062   0.014040  -0.012988   0.002531  -0.059835
   16  H  4  S    0.000000   0.064488  -0.111660  -0.024330  -0.184222
   17  H  5  S    0.000007   0.055294  -0.127409  -0.030893  -0.138547
   18  C  6  S   -0.000000  -0.114564  -0.151822   0.009058   0.085088
   19  C  6  S    0.000000   0.302681   0.442579  -0.023039  -0.269689
   20  C  6  X   -0.000000  -0.065448   0.011565   0.006405  -0.097636
   21  C  6  Y    0.000000   0.007164  -0.018371  -0.134915   0.048392
   22  C  6  Z    0.000001  -0.009551   0.002964   0.016663  -0.100594
   23  H  7  S   -0.000000   0.060564   0.011777  -0.131801   0.159315
   24  H  8  S   -0.000001   0.067226   0.006626  -0.109561   0.205200
   25  C  9  S   -0.000000  -0.085095  -0.065717  -0.143107  -0.038386
   26  C  9  S   -0.000008   0.221135   0.184113   0.415543   0.121793
   27  C  9  X   -0.000022  -0.013773   0.092175  -0.047994  -0.094911
   28  C  9  Y    0.000022   0.056912   0.042055  -0.018060  -0.083963
   29  C  9  Z   -0.000002   0.000476   0.008380  -0.001630  -0.041731
   30  H 10  S   -0.000000   0.062827   0.121517  -0.011235  -0.159787
   31  H 11  S   -0.000000   0.053486   0.132741  -0.009650  -0.121990
   32  B 12  S    0.990900  -0.000240   0.000342  -0.002139  -0.007371
   33  B 12  S    0.037209   0.000514  -0.000726   0.004767   0.017387
   34  B 12  X   -0.000095   0.000230   0.000085   0.001410   0.002121
   35  B 12  Y    0.000234   0.000193  -0.000271   0.001786   0.003078
   36  B 12  Z   -0.000221   0.000080  -0.000165   0.000353   0.000487
   37  H 13  S   -0.006416   0.000576  -0.000406   0.005277   0.013148
   38  H 14  S   -0.006420   0.000058  -0.000169   0.000921   0.006128
   39  H 15  S   -0.006417   0.000263  -0.000741   0.002524   0.009058
   40  H 16  S    0.000073   0.043454   0.064339   0.145977   0.075969
   41  H 17  S   -0.000472   0.045783  -0.082411   0.130661   0.123116

                     11         12         13         14         15
                   -0.7016    -0.6682    -0.6257    -0.5935    -0.5072
                     A          A          A          A          A   
    1  C  1  S   -0.046230  -0.005894  -0.014596   0.020501  -0.004950
    2  C  1  S    0.145907   0.019362   0.050508  -0.068059   0.015680
    3  C  1  X    0.024486  -0.013654  -0.225187   0.153904   0.024875
    4  C  1  Y    0.144628   0.021986   0.145887   0.026875  -0.131342
    5  C  1  Z    0.037482   0.012338   0.012899   0.237466   0.386442
    6  C  2  S   -0.014478   0.001003  -0.004265  -0.017402   0.002345
    7  C  2  S    0.047130  -0.003248   0.014749   0.057110  -0.008309
    8  C  2  X   -0.123407  -0.001470   0.037782   0.080076   0.206506
    9  C  2  Y    0.046437   0.014637   0.226231   0.169175   0.012649
   10  C  2  Z    0.005452   0.008711  -0.044393   0.300159  -0.070970
   11  C  3  S    0.113267   0.008955  -0.002997  -0.015861  -0.007835
   12  C  3  S   -0.349187  -0.029251   0.006684   0.049393   0.030456
   13  C  3  X    0.179316  -0.014791  -0.225879   0.005974   0.071575
   14  C  3  Y    0.045687  -0.011610  -0.148907  -0.144180   0.003021
   15  C  3  Z    0.047291  -0.000220  -0.065224   0.053284   0.091914
   16  H  4  S    0.083056   0.016652   0.028126   0.175679   0.340539
   17  H  5  S    0.076233   0.019658   0.206044  -0.175206  -0.179153
   18  C  6  S    0.064927  -0.002166  -0.012445   0.020162   0.006903
   19  C  6  S   -0.205356   0.007308   0.042417  -0.068802  -0.023715
   20  C  6  X   -0.078321   0.017132   0.257642  -0.100340   0.116105
   21  C  6  Y   -0.128359   0.002360   0.028670   0.135094   0.069482
   22  C  6  Z   -0.012275   0.007621  -0.000442   0.240023  -0.367701
   23  H  7  S    0.027487   0.009425   0.159613   0.227630   0.032288
   24  H  8  S    0.016952  -0.007588   0.033394  -0.223263   0.044542
   25  C  9  S   -0.121137   0.000086  -0.004884  -0.003609   0.001105
   26  C  9  S    0.374749  -0.001087   0.012517   0.010380  -0.002380
   27  C  9  X    0.113527   0.017688   0.133199  -0.093227  -0.069991
   28  C  9  Y   -0.149030  -0.023817  -0.243957  -0.088032  -0.036974
   29  C  9  Z    0.012040   0.003649  -0.002344   0.070753  -0.058734
   30  H 10  S   -0.100846   0.010507   0.050225   0.177089  -0.298630
   31  H 11  S   -0.119292   0.011062   0.186985  -0.180149   0.238440
   32  B 12  S    0.006992  -0.227329   0.019959   0.005914  -0.000404
   33  B 12  S   -0.017175   0.552114  -0.049439  -0.014886   0.000895
   34  B 12  X    0.002240  -0.002527   0.006843   0.004449   0.001799
   35  B 12  Y   -0.002467   0.006013   0.006879   0.005017  -0.001906
   36  B 12  Z   -0.001168  -0.006079   0.002773   0.002036  -0.002055
   37  H 13  S   -0.004463   0.278066  -0.013889  -0.000526   0.002583
   38  H 14  S   -0.007149   0.278153  -0.033016  -0.013153   0.002424
   39  H 15  S   -0.012173   0.277902  -0.023838  -0.006496  -0.002909
   40  H 16  S    0.289514   0.024420   0.213049   0.040837   0.003124
   41  H 17  S   -0.275905   0.008341   0.210892   0.081220  -0.062641

                     16         17         18         19         20
                   -0.4690    -0.4644    -0.4613    -0.4571    -0.4462
                     A          A          A          A          A   
    1  C  1  S    0.013170   0.004629  -0.007278   0.017007  -0.020228
    2  C  1  S   -0.049559  -0.018025   0.027829  -0.066198   0.078897
    3  C  1  X   -0.179128  -0.018359   0.119163  -0.100207   0.150076
    4  C  1  Y   -0.049382   0.095588   0.040682   0.356762   0.066962
    5  C  1  Z   -0.012692   0.043160   0.014320   0.098360  -0.268038
    6  C  2  S    0.020844  -0.000593  -0.015549  -0.000337  -0.002325
    7  C  2  S   -0.081299   0.002829   0.060633   0.004478   0.015026
    8  C  2  X    0.035417  -0.001488  -0.018858   0.030761  -0.094969
    9  C  2  Y    0.352911  -0.004491  -0.224617  -0.018679   0.019694
   10  C  2  Z   -0.076728   0.012404   0.066620   0.110593   0.404414
   11  C  3  S   -0.028276   0.010215   0.016410   0.026367  -0.016985
   12  C  3  S    0.111672  -0.040757  -0.067040  -0.106807   0.066179
   13  C  3  X    0.209587  -0.016980  -0.167394  -0.020283   0.137075
   14  C  3  Y    0.058069  -0.086658  -0.049246  -0.310028   0.056748
   15  C  3  Z    0.084483  -0.032836  -0.068991  -0.142734  -0.078636
   16  H  4  S   -0.047010   0.037508   0.034870   0.075627  -0.239179
   17  H  5  S    0.103957   0.038884  -0.071018   0.193650   0.023139
   18  C  6  S    0.010061  -0.005828  -0.006293  -0.024667   0.001990
   19  C  6  S   -0.038104   0.023119   0.024460   0.096767  -0.009326
   20  C  6  X    0.116020  -0.066576  -0.087628  -0.234245   0.168207
   21  C  6  Y   -0.158874  -0.069733   0.095445  -0.188214   0.106980
   22  C  6  Z    0.074936  -0.042924  -0.058467  -0.179596  -0.227723
   23  H  7  S    0.279864  -0.000344  -0.170907   0.020753   0.120553
   24  H  8  S    0.021767  -0.010636  -0.027557  -0.110288  -0.401993
   25  C  9  S   -0.030024  -0.009901   0.015242  -0.029691   0.002850
   26  C  9  S    0.119926   0.039580  -0.062844   0.121702  -0.012261
   27  C  9  X   -0.159589   0.022703   0.132263   0.017146  -0.110534
   28  C  9  Y    0.202495   0.086003  -0.138534   0.303638  -0.071939
   29  C  9  Z    0.030026  -0.012379  -0.023358  -0.076435  -0.127633
   30  H 10  S    0.041956  -0.051510  -0.040209  -0.196561  -0.200064
   31  H 11  S    0.044111  -0.031478  -0.036461  -0.090923   0.263131
   32  B 12  S   -0.003575   0.000394   0.003105   0.000933  -0.000564
   33  B 12  S    0.009575  -0.000818  -0.008369  -0.001611   0.001240
   34  B 12  X   -0.217820  -0.287768  -0.316844   0.092481  -0.012565
   35  B 12  Y   -0.165199   0.213144  -0.243665  -0.048255   0.010177
   36  B 12  Z   -0.080668   0.331871  -0.127197  -0.090047   0.016714
   37  H 13  S   -0.246353  -0.259830  -0.362611   0.081424  -0.009039
   38  H 14  S    0.257776  -0.238443   0.374384   0.051384  -0.011949
   39  H 15  S   -0.000818   0.496000  -0.020827  -0.139547   0.023936
   40  H 16  S   -0.199437  -0.056987   0.141264  -0.215680   0.017279
   41  H 17  S   -0.168048   0.062608   0.135760   0.192342  -0.082687

                     21         22         23         24         25
                   -0.4298    -0.4134    -0.2253     0.2384     0.2578
                     A          A          A          A          A   
    1  C  1  S    0.010321  -0.001891   0.001722  -0.001870   0.006122
    2  C  1  S   -0.044329   0.010750  -0.004292   0.008917  -0.032049
    3  C  1  X   -0.387926  -0.027740   0.025295  -0.000025   0.016569
    4  C  1  Y   -0.079635  -0.297927   0.069815  -0.013275   0.048455
    5  C  1  Z   -0.050775  -0.044220  -0.079396  -0.002367  -0.025277
    6  C  2  S    0.000715  -0.006777  -0.024121   0.000595   0.010051
    7  C  2  S   -0.001824   0.024222   0.102844  -0.003125  -0.049053
    8  C  2  X    0.451833   0.124699  -0.050951  -0.001633   0.146394
    9  C  2  Y   -0.123526   0.161980  -0.072584   0.001589  -0.015884
   10  C  2  Z    0.052367   0.129426   0.046059  -0.002192  -0.021828
   11  C  3  S    0.003044   0.002611   0.006239   0.006191  -0.000730
   12  C  3  S   -0.003260  -0.013448  -0.030889  -0.033348   0.001079
   13  C  3  X    0.070133  -0.314726  -0.107558   0.019099   0.129972
   14  C  3  Y    0.071827   0.294040  -0.205733   0.008046   0.211336
   15  C  3  Z    0.041963   0.040870   0.596242   0.025801  -0.707617
   16  H  4  S   -0.110207  -0.078861  -0.171366  -0.006777   0.175769
   17  H  5  S    0.305723  -0.107547   0.083727   0.003431  -0.027094
   18  C  6  S   -0.015841  -0.007112  -0.007973   0.000142   0.008678
   19  C  6  S    0.064134   0.033509   0.036317  -0.000691  -0.042182
   20  C  6  X   -0.262021  -0.177086  -0.016789   0.000449   0.009269
   21  C  6  Y    0.340615  -0.234491  -0.013764  -0.000754   0.025834
   22  C  6  Z   -0.062902  -0.107581  -0.099142   0.000023   0.030905
   23  H  7  S    0.001172   0.255595  -0.067671   0.003597   0.027786
   24  H  8  S   -0.092315  -0.153135  -0.035876  -0.000719  -0.004543
   25  C  9  S   -0.008920  -0.000619  -0.000885   0.000353  -0.004386
   26  C  9  S    0.027194   0.000271   0.006628  -0.002496   0.019082
   27  C  9  X   -0.109647   0.409072  -0.075413  -0.002026  -0.069135
   28  C  9  Y   -0.111839   0.128833  -0.010135   0.002965   0.005356
   29  C  9  Z   -0.025389   0.049410   0.628858  -0.025400   0.750068
   30  H 10  S   -0.015103  -0.177906  -0.189028   0.006149  -0.172279
   31  H 11  S   -0.186607  -0.113661   0.107720  -0.001928   0.111508
   32  B 12  S   -0.000468  -0.001336   0.001151   0.018619  -0.000140
   33  B 12  S    0.000705   0.003966  -0.003336  -0.083887   0.000449
   34  B 12  X   -0.013698   0.019446  -0.000495  -0.265586  -0.008522
   35  B 12  Y    0.004494   0.007094  -0.000505   0.687519   0.020608
   36  B 12  Z    0.012325   0.000993  -0.004427  -0.669283  -0.019227
   37  H 13  S   -0.010020   0.019218  -0.002904   0.026947   0.001085
   38  H 14  S   -0.004862  -0.012824   0.004473   0.026911  -0.001657
   39  H 15  S    0.018828  -0.004452  -0.004016   0.026605   0.000604
   40  H 16  S    0.092073   0.060343  -0.029116   0.002635   0.024256
   41  H 17  S   -0.132728   0.057583   0.045019   0.020645   0.036123

                     26         27         28         29         30
                    0.5941     0.6044     0.6211     0.6575     0.6665
                     A          A          A          A          A   
    1  C  1  S    0.016405   0.013669  -0.030863   0.063493  -0.075210
    2  C  1  S   -0.105094  -0.095031   0.168006  -0.352095   0.464640
    3  C  1  X   -0.228249   0.225731   0.432559  -0.263436  -0.523482
    4  C  1  Y   -0.315919  -0.498082   0.185798   0.393826  -0.315145
    5  C  1  Z   -0.302649   0.292202  -0.220694   0.283492   0.043121
    6  C  2  S    0.010875   0.004223  -0.001707   0.001744  -0.121252
    7  C  2  S   -0.073191  -0.050645   0.018739  -0.005454   0.734877
    8  C  2  X   -0.386388   0.135251   0.552486  -0.284939   0.006470
    9  C  2  Y   -0.298397  -0.392178  -0.157664   0.141899  -0.032453
   10  C  2  Z   -0.386548   0.342501  -0.345645   0.175171   0.091189
   11  C  3  S    0.063361   0.028065  -0.088698  -0.165205   0.018268
   12  C  3  S   -0.364658  -0.181558   0.510001   1.005186  -0.076742
   13  C  3  X   -0.028216   0.302591   0.378588  -0.064566  -0.025914
   14  C  3  Y   -0.187700  -0.250557  -0.233955   0.073103  -0.435619
   15  C  3  Z   -0.051758  -0.068357   0.069689  -0.042598  -0.205698
   16  H  4  S    0.400231  -0.254235   0.092685  -0.110438  -0.154556
   17  H  5  S   -0.107319   0.591681   0.155448  -0.121418  -0.465418
   18  C  6  S   -0.036715   0.031583  -0.004306  -0.088161  -0.074473
   19  C  6  S    0.189890  -0.194048   0.037381   0.505078   0.461240
   20  C  6  X   -0.321237  -0.111181   0.445384  -0.294948   0.331098
   21  C  6  Y   -0.296359  -0.479694  -0.296065  -0.226759  -0.347368
   22  C  6  Z   -0.384280   0.378976  -0.219475  -0.071127   0.303096
   23  H  7  S    0.561320   0.287436   0.114588  -0.110872  -0.308923
   24  H  8  S   -0.455798   0.375977  -0.330559   0.155605  -0.230719
   25  C  9  S    0.058178   0.086380   0.089605   0.151086  -0.004304
   26  C  9  S   -0.347734  -0.509172  -0.507262  -0.912465   0.060464
   27  C  9  X   -0.408257  -0.013114   0.419914  -0.057622  -0.053999
   28  C  9  Y   -0.214584  -0.104375  -0.066383  -0.024473  -0.393833
   29  C  9  Z    0.039593  -0.064369   0.068289   0.033216  -0.007974
   30  H 10  S    0.392171  -0.198625   0.211199  -0.084988  -0.444940
   31  H 11  S    0.024701   0.383544  -0.538793  -0.021146  -0.338904
   32  B 12  S    0.010199   0.008661   0.001324   0.038515  -0.017516
   33  B 12  S   -0.054228  -0.044981  -0.007871  -0.219742   0.095405
   34  B 12  X   -0.031445  -0.023811  -0.005405  -0.111896   0.023962
   35  B 12  Y   -0.010425  -0.010564   0.002705  -0.024120   0.016768
   36  B 12  Z    0.017215   0.019360   0.000876   0.005802  -0.014119
   37  H 13  S    0.047350   0.036461   0.007728   0.204790  -0.065454
   38  H 14  S    0.021893   0.020853   0.004282   0.062387  -0.039282
   39  H 15  S    0.005196   0.001266   0.001467   0.075715  -0.031162
   40  H 16  S    0.178562   0.210330   0.077545   0.548175  -0.369248
   41  H 17  S    0.067449   0.160809  -0.140184  -0.623972  -0.283457

                     31         32         33         34         35
                    0.7028     0.7185     0.7279     0.7478     0.7536
                     A          A          A          A          A   
    1  C  1  S    0.049508  -0.156545   0.016348   0.030203   0.046664
    2  C  1  S   -0.299019   0.962520  -0.101892  -0.171797  -0.287079
    3  C  1  X   -0.050525   0.119498   0.102025  -0.044112  -0.054273
    4  C  1  Y    0.058909   0.192468  -0.330860   0.033731  -0.358706
    5  C  1  Z   -0.024633   0.507215   0.073989   0.204748   0.509656
    6  C  2  S    0.002612   0.060015  -0.028775  -0.178944  -0.042054
    7  C  2  S   -0.024014  -0.352167   0.195123   1.108102   0.257945
    8  C  2  X   -0.079707   0.184490  -0.336072   0.255343  -0.485222
    9  C  2  Y   -0.138479   0.160100   0.478885   0.164295   0.055292
   10  C  2  Z    0.124813  -0.139652  -0.398093  -0.241880   0.127547
   11  C  3  S   -0.051265   0.069369   0.033867  -0.014529  -0.020757
   12  C  3  S    0.323427  -0.439697  -0.251251   0.087734   0.126817
   13  C  3  X   -0.075725   0.028878   0.447008  -0.050245   0.170108
   14  C  3  Y   -0.011018   0.192993  -0.056938   0.119077  -0.079631
   15  C  3  Z   -0.002784  -0.056950   0.031113  -0.014921  -0.147698
   16  H  4  S    0.143425  -0.894887   0.029663  -0.110449  -0.304838
   17  H  5  S    0.068177  -0.277196   0.268746   0.105549   0.371457
   18  C  6  S    0.017391  -0.037450  -0.097361   0.148797   0.011118
   19  C  6  S   -0.111550   0.223863   0.604073  -0.919810  -0.063048
   20  C  6  X   -0.063109  -0.048491  -0.054007  -0.255430   0.148744
   21  C  6  Y   -0.044696  -0.212816   0.390184  -0.343568   0.195999
   22  C  6  Z   -0.053710  -0.333853   0.211382   0.036336  -0.532489
   23  H  7  S    0.104262   0.036883  -0.298189  -0.606357  -0.098131
   24  H  8  S    0.100730   0.069367  -0.421480  -0.657807  -0.038583
   25  C  9  S    0.005535   0.024622   0.068632  -0.000041  -0.011290
   26  C  9  S   -0.022836  -0.167742  -0.451661  -0.011745   0.087198
   27  C  9  X    0.096894  -0.411266   0.098480  -0.034092   0.285253
   28  C  9  Y   -0.095064  -0.062798   0.339947   0.074364  -0.048926
   29  C  9  Z    0.019518   0.032232  -0.021630  -0.027626   0.172437
   30  H 10  S    0.095403   0.284847  -0.471392   0.457631   0.431374
   31  H 11  S    0.079986  -0.206725  -0.142512   0.622663  -0.296186
   32  B 12  S   -0.248542  -0.050492  -0.049446  -0.002574   0.014003
   33  B 12  S    1.399067   0.289596   0.285810   0.014271  -0.080687
   34  B 12  X   -0.018775  -0.098837  -0.195245  -0.069419   0.629789
   35  B 12  Y    0.057010   0.003482   0.000418  -0.036030   0.076318
   36  B 12  Z   -0.083639   0.034520   0.075806  -0.013275  -0.166713
   37  H 13  S   -0.709980  -0.075916   0.002399   0.055253  -0.490525
   38  H 14  S   -0.723895  -0.157225  -0.166974  -0.057938   0.208436
   39  H 15  S   -0.687450  -0.220435  -0.288611  -0.018362   0.409055
   40  H 16  S   -0.072530   0.195071   0.506259   0.067735  -0.170265
   41  H 17  S   -0.246117   0.362801   0.422211  -0.022487  -0.039984

                     36         37         38         39         40
                    0.7590     0.7643     0.7670     0.7989     0.8578
                     A          A          A          A          A   
    1  C  1  S    0.002766  -0.064979  -0.095391  -0.061500   0.054216
    2  C  1  S   -0.015699   0.409529   0.600905   0.376549  -0.346777
    3  C  1  X   -0.047034  -0.072861  -0.435151  -0.042525  -0.587993
    4  C  1  Y    0.005686   0.269280  -0.020516  -0.283636   0.177711
    5  C  1  Z    0.005415  -0.153967   0.117087  -0.573599  -0.075511
    6  C  2  S   -0.005987   0.034716   0.028997   0.036380  -0.079243
    7  C  2  S    0.035975  -0.209458  -0.183992  -0.224237   0.501209
    8  C  2  X   -0.009220   0.184171  -0.174579   0.244138  -0.002667
    9  C  2  Y   -0.013200  -0.037823  -0.297893   0.668204  -0.402939
   10  C  2  Z    0.039349  -0.306163  -0.079351   0.502648   0.440543
   11  C  3  S   -0.008689  -0.006776  -0.030189   0.032994   0.036291
   12  C  3  S    0.056360   0.034657   0.195791  -0.221080  -0.273177
   13  C  3  X    0.011176   0.109444   0.340561   0.264804   0.350246
   14  C  3  Y   -0.015785  -0.034782  -0.442525  -0.389273   0.402368
   15  C  3  Z   -0.006630   0.083440  -0.067461  -0.028545   0.220198
   16  H  4  S    0.000688  -0.036527  -0.330434   0.302888   0.203910
   17  H  5  S   -0.025466  -0.370823  -0.506800  -0.229230  -0.320871
   18  C  6  S    0.013893  -0.005390   0.094370   0.011002   0.052222
   19  C  6  S   -0.086878   0.024023  -0.590413  -0.080850  -0.331550
   20  C  6  X   -0.014147  -0.302449  -0.153932  -0.312212   0.594585
   21  C  6  Y   -0.002842   0.015479   0.420026  -0.129553  -0.168869
   22  C  6  Z   -0.035371   0.415835  -0.002535  -0.379297  -0.058265
   23  H  7  S   -0.014736   0.164995   0.359623  -0.577527  -0.012811
   24  H  8  S    0.015031  -0.148894  -0.011426   0.521366   0.134843
   25  C  9  S   -0.000592   0.044676  -0.002497   0.050658   0.031639
   26  C  9  S    0.005641  -0.295558   0.017211  -0.326157  -0.248362
   27  C  9  X    0.049378   0.002280   0.631849   0.058799  -0.160002
[...]
    1  C  1  S   -0.047498  -0.101158  -0.019626
    2  C  1  S    0.289741   0.625164   0.124843
    3  C  1  X   -0.001997  -0.048371  -0.047625
    4  C  1  Y   -0.074439  -0.011578   0.037576
    5  C  1  Z   -0.189566  -0.201198   0.048072
    6  C  2  S   -0.008370  -0.036916   0.010240
    7  C  2  S    0.056204   0.244882  -0.058440
    8  C  2  X    0.025992   0.231428   0.024074
    9  C  2  Y    0.057790   0.209509   0.076210
   10  C  2  Z   -0.048769  -0.163295   0.055260
   11  C  3  S    0.020316  -0.006539   0.012086
   12  C  3  S   -0.118057   0.051380  -0.072391
   13  C  3  X    0.071393   0.032397   0.030283
   14  C  3  Y   -0.201736  -0.409380   0.086291
   15  C  3  Z   -0.002848   0.063038  -0.033684
   16  H  4  S   -0.003772  -0.176187  -0.107751
   17  H  5  S   -0.230468  -0.419177  -0.060201
   18  C  6  S    0.005369  -0.038910   0.000295
   19  C  6  S   -0.027749   0.252606  -0.002166
   20  C  6  X    0.148407   0.435587  -0.060863
   21  C  6  Y    0.056547  -0.131059   0.008535
   22  C  6  Z    0.315141   0.565500  -0.053118
   23  H  7  S   -0.079215  -0.314653  -0.049438
   24  H  8  S   -0.015452  -0.071330   0.068130
   25  C  9  S   -0.008066   0.021980   0.003493
   26  C  9  S    0.036741  -0.146137  -0.016542
   27  C  9  X    0.046930   0.007723  -0.029402
   28  C  9  Y    0.189846   0.223235   0.001638
   29  C  9  Z    0.021436   0.051990   0.022549
   30  H 10  S   -0.303183  -0.783767   0.072783
   31  H 11  S    0.173713   0.151630  -0.021661
   32  B 12  S   -0.198604   0.078280   0.124841
   33  B 12  S    1.150569  -0.462108  -0.720905
   34  B 12  X    0.341697  -0.282303   0.276667
   35  B 12  Y    0.440191  -0.097939   0.914073
   36  B 12  Z    0.019714   0.088692   0.355414
   37  H 13  S   -0.825138   0.487382   0.370029
   38  H 14  S   -0.078470  -0.005291   1.109676
   39  H 15  S   -0.816200   0.253397  -0.396127
   40  H 16  S    0.066347   0.168082   0.024121
   41  H 17  S   -0.010376  -0.260516   0.085708

     ----------------------------------------------------------------
     PROPERTY VALUES FOR THE RHF   SELF-CONSISTENT FIELD WAVEFUNCTION
     ----------------------------------------------------------------

          -----------------
          ENERGY COMPONENTS
          -----------------

         WAVEFUNCTION NORMALIZATION =       1.0000000000

                ONE ELECTRON ENERGY =    -723.4448471605
                TWO ELECTRON ENERGY =     289.2120164378
           NUCLEAR REPULSION ENERGY =     216.7801276883
                                      ------------------
                       TOTAL ENERGY =    -217.4527030345

 ELECTRON-ELECTRON POTENTIAL ENERGY =     289.2120164378
  NUCLEUS-ELECTRON POTENTIAL ENERGY =    -940.3244467843
   NUCLEUS-NUCLEUS POTENTIAL ENERGY =     216.7801276883
                                      ------------------
             TOTAL POTENTIAL ENERGY =    -434.3323026583
               TOTAL KINETIC ENERGY =     216.8795996238
                 VIRIAL RATIO (V/T) =       2.0026424957

          ---------------------------------------
          MULLIKEN AND LOWDIN POPULATION ANALYSES
          ---------------------------------------

     ATOMIC MULLIKEN POPULATION IN EACH MOLECULAR ORBITAL

                      1          2          3          4          5

                  2.000000   2.000000   2.000000   2.000000   2.000000

    1             2.003224   0.000006  -0.000666  -0.000654   0.000001
    2            -0.000632  -0.000622   0.000009   2.002936   0.000097
    3            -0.000662   0.000027   2.002864   0.000012  -0.001176
    4            -0.000940  -0.000000   0.000001  -0.000000  -0.000000
    5            -0.000982   0.000000  -0.000001   0.000004  -0.000000
    6             0.000005   2.003185   0.000027  -0.000637  -0.000679
    7             0.000001   0.000001   0.000000  -0.000924  -0.000000
    8            -0.000018  -0.000020  -0.000002  -0.000835  -0.000000
    9             0.000002  -0.000646  -0.001110   0.000093   2.002746
   10            -0.000000  -0.000945  -0.000000   0.000000  -0.000002
   11             0.000000  -0.000986  -0.000000   0.000005   0.000002
   12            -0.000000   0.000000   0.000001   0.000000  -0.000000
   13             0.000000   0.000000  -0.000000   0.000000  -0.000000
   14             0.000000  -0.000000  -0.000000   0.000000  -0.000000
   15             0.000000  -0.000000   0.000002   0.000000   0.000000
   16            -0.000000   0.000001  -0.000008   0.000000  -0.000987
   17             0.000003   0.000000  -0.001117  -0.000000  -0.000001

                      6          7          8          9         10

                  2.000000   2.000000   2.000000   2.000000   2.000000

    1            -0.000000   0.354575   0.129115   0.515931   0.330520
    2            -0.000000   0.379466   0.476535   0.100310   0.305176
    3             0.000001   0.356180   0.428380   0.208941   0.141929
    4             0.000000   0.025544   0.003424   0.099184   0.139598
    5             0.000000   0.033881   0.022269   0.097659   0.077602
    6            -0.000000   0.316720   0.088569   0.544916   0.338406
    7            -0.000000   0.028921   0.105126   0.001728   0.166942
    8            -0.000000   0.081807   0.126523   0.001917   0.095871
    9            -0.000000   0.313295   0.448665   0.156201   0.123387
   10             0.000000   0.020130   0.001006   0.091291   0.134418
   11             0.000000   0.031571   0.003998   0.111710   0.081197
   12             2.003177   0.000326   0.003509   0.000984   0.017358
   13            -0.001044   0.000142   0.001506   0.000161   0.007146
   14            -0.001055   0.000004   0.000106   0.000037   0.002552
   15            -0.001034   0.000259   0.002397   0.001089   0.008403
   16             0.000000   0.026378   0.077453   0.023855   0.006584
   17            -0.000046   0.030801   0.081419   0.044086   0.022911

                     11         12         13         14         15

                  2.000000   2.000000   2.000000   2.000000   2.000000

    1             0.065002   0.157336   0.246507   0.418645   0.506434
    2             0.045280   0.045133   0.334427   0.317193   0.022402
    3             0.261750   0.207957   0.237063   0.118994   0.017111
    4             0.000019   0.013098   0.030677   0.174852   0.264749
    5             0.021836   0.067924   0.063040   0.085283   0.220988
    6             0.154529   0.065397   0.239180   0.359322   0.475053
    7             0.000455   0.000034   0.159084   0.069596   0.002071
    8             0.000503   0.000085   0.010362   0.094810   0.000779
    9             0.198789   0.202136   0.226960   0.088243   0.037341
   10             0.048631   0.007715   0.010696   0.076377   0.270360
   11             0.036664   0.003485   0.082860   0.184822   0.152741
   12             0.397281   0.518826   0.067281   0.003987   0.004419
   13             0.112525   0.173545   0.009596   0.000336   0.000248
   14             0.094236   0.201797   0.050681   0.003398   0.003979
   15             0.208655   0.145694   0.002560   0.000124   0.000125
   16             0.099792   0.133322   0.128367   0.000845   0.017372
   17             0.254052   0.056514   0.100659   0.003174   0.003826

                     16         17         18         19         20

                  2.000000   2.000000   2.000000   2.000000   2.000000

    1             0.007415   0.097354   0.432016   0.484966   0.019530
    2             0.010553   0.180147   0.099774   0.408798   0.430458
    3             0.019435   0.124186   0.464964   0.139284   0.148692
    4             0.001369   0.001930   0.053230   0.012241   0.000262
    5             0.000285   0.000532   0.140426   0.027536   0.013407
    6             0.027705   0.059330   0.137121   0.393075   0.425314
    7             0.003185   0.109095   0.009638   0.049818   0.154891
    8             0.001113   0.002376   0.000159   0.010800   0.000152
    9             0.030363   0.041261   0.453899   0.261852   0.302132
   10             0.005468   0.022770   0.014386   0.068298   0.000059
   11             0.002139   0.000993   0.004192   0.115973   0.049035
   12             0.847029   0.594401   0.008989   0.011403   0.107903
   13             0.616922   0.102163   0.002296   0.007261   0.012104
   14             0.005709   0.506128   0.000946   0.006284   0.072921
   15             0.402278   0.080776   0.006229   0.000052   0.049175
   16             0.001374   0.006282   0.164502   0.001269   0.186040
   17             0.017657   0.070272   0.007232   0.001092   0.027927

                     21         22         23

                  2.000000   2.000000   2.000000

    1             0.166129   0.071115   0.099954
    2             0.145680   0.826702   0.045829
    3             0.404312   0.060844   0.707185
    4             0.000464   0.081053   0.054263
    5             0.002643   0.045057   0.025352
    6             0.256250   0.122699   0.097283
    7             0.010306   0.042634   0.001086
    8             0.020133   0.465987   0.019843
    9             0.232053   0.106388   0.857158
   10             0.032143   0.122990   0.031820
   11             0.001472   0.044718   0.050139
   12             0.224420   0.000877   0.001236
   13             0.004660   0.000002   0.000000
   14             0.115939   0.000122   0.000039
   15             0.153638   0.000692   0.000045
   16             0.052708   0.000684   0.003833
   17             0.177049   0.007436   0.004935

               ----- POPULATIONS IN EACH AO -----
                             MULLIKEN      LOWDIN
              1  C  1  S      1.99224     1.98517
              2  C  1  S      1.19485     1.04625
              3  C  1  X      0.95682     0.98650
              4  C  1  Y      0.96210     0.99637
              5  C  1  Z      0.99845     1.02363
              6  C  2  S      1.99250     1.98565
              7  C  2  S      1.24723     1.10591
              8  C  2  X      0.90885     0.95073
              9  C  2  Y      0.94026     0.97477
             10  C  2  Z      1.08681     1.11602
             11  C  3  S      1.99360     1.98800
             12  C  3  S      1.27925     1.15442
             13  C  3  X      0.99997     1.04128
             14  C  3  Y      0.95422     0.99279
             15  C  3  Z      0.82123     0.83809
             16  H  4  S      0.95502     0.98580
             17  H  5  S      0.94474     0.97615
             18  C  6  S      1.99223     1.98513
             19  C  6  S      1.19454     1.04655
             20  C  6  X      0.96186     0.99176
             21  C  6  Y      0.95147     0.98681
             22  C  6  Z      1.00268     1.02722
             23  H  7  S      0.91369     0.94285
             24  H  8  S      0.93235     0.94357
             25  C  9  S      1.99359     1.98797
             26  C  9  S      1.31197     1.18656
             27  C  9  X      0.92350     0.97992
             28  C  9  Y      0.95023     0.99020
             29  C  9  Z      0.90192     0.92291
             30  H 10  S      0.95761     0.98724
             31  H 11  S      0.95673     0.98726
             32  B 12  S      1.99117     1.98193
             33  B 12  S      1.00462     0.94712
             34  B 12  X      0.73706     0.77119
             35  B 12  Y      0.73262     0.77066
             36  B 12  Z      0.34793     0.36593
             37  H 13  S      1.04957     1.04436
             38  H 14  S      1.06382     1.05665
             39  H 15  S      1.06116     1.04928
             40  H 16  S      0.92967     0.95854
             41  H 17  S      0.90988     0.94089

          ----- MULLIKEN ATOMIC OVERLAP POPULATIONS -----
          (OFF-DIAGONAL ELEMENTS NEED TO BE MULTIPLIED BY 2)

             1           2           3           4           5

    1    4.7809593
    2    0.3444689   4.9560912
    3    0.3565491  -0.0337469   5.0049847
    4    0.3739324  -0.0158875  -0.0237207   0.6499167
    5    0.3878021  -0.0255706  -0.0154760  -0.0291888   0.6448085
    6   -0.0338857   0.3504948  -0.0371446   0.0004627   0.0016141
    7   -0.0181940   0.3706249   0.0014447  -0.0001708  -0.0007065
    8   -0.0327096   0.2970935  -0.0066456   0.0035295  -0.0194191
    9   -0.0286518  -0.0287044   0.4637091   0.0003611   0.0006439
   10    0.0005453  -0.0191467   0.0011314   0.0000487  -0.0000577
   11    0.0016533  -0.0234007  -0.0003962  -0.0000625   0.0001244
   12    0.0000707  -0.0000021  -0.0092297   0.0000235   0.0000001
   13    0.0000283  -0.0000005  -0.0018418   0.0000017  -0.0000005
   14   -0.0000011   0.0000000   0.0001355  -0.0000005   0.0000000
   15    0.0002049  -0.0000066  -0.0088159   0.0000909  -0.0000014
   16    0.0018570   0.0016941  -0.0303078  -0.0000057  -0.0001135
   17   -0.0301740   0.0016514   0.3876417  -0.0043123   0.0002822

             6           7           8           9          10

    6    4.7924929
    7   -0.0199355   0.6094827
    8   -0.0324065  -0.0296658   0.7727255
    9    0.3472640   0.0011031  -0.0026515   5.0300087
   10    0.3714830  -0.0006853   0.0036753  -0.0214264   0.6531144
   11    0.3894080   0.0004827  -0.0213111  -0.0169624  -0.0310534
   12   -0.0000004   0.0000000  -0.0000005  -0.0004733   0.0000006
   13    0.0000007   0.0000000  -0.0000001  -0.0001639   0.0000001
   14    0.0000000  -0.0000000   0.0000000   0.0000044  -0.0000000
   15   -0.0000064   0.0000001  -0.0000005  -0.0000297   0.0000006
   16   -0.0290928  -0.0000542  -0.0000350   0.3665239   0.0000547
   17    0.0020210  -0.0000388   0.0001681  -0.0293465  -0.0000737

            11          12          13          14          15

   11    0.6619670
   12   -0.0000001   3.6234588
   13    0.0000000   0.4065933   0.6695658
   14    0.0000000   0.3980662  -0.0116118   0.6948810
   15   -0.0000001   0.4030194  -0.0098608  -0.0178357   0.7009928
   16   -0.0037099  -0.0001116  -0.0001218   0.0000001   0.0000179
   17   -0.0000095  -0.0080062  -0.0030189   0.0001839  -0.0066089

            16          17

   16    0.6237963
   17   -0.0007253   0.6002471

          TOTAL MULLIKEN AND LOWDIN ATOMIC POPULATIONS
       ATOM         MULL.POP.    CHARGE          LOW.POP.     CHARGE
    1 C             6.104455   -0.104455         6.037918   -0.037918
    2 C             6.175653   -0.175653         6.133073   -0.133073
    3 C             6.048271   -0.048271         6.014569   -0.014569
    4 H             0.955018    0.044982         0.985805    0.014195
    5 H             0.944741    0.055259         0.976149    0.023851
    6 C             6.102769   -0.102769         6.037463   -0.037463
    7 H             0.913688    0.086312         0.942846    0.057154
    8 H             0.932347    0.067653         0.943575    0.056425
    9 C             6.081208   -0.081208         6.067549   -0.067549
   10 H             0.957611    0.042389         0.987245    0.012755
   11 H             0.956730    0.043270         0.987261    0.012739
   12 B             4.813409    0.186591         4.836825    0.163175
   13 H             1.049570   -0.049570         1.044361   -0.044361
   14 H             1.063822   -0.063822         1.056648   -0.056648
   15 H             1.061161   -0.061161         1.049280   -0.049280
   16 H             0.929666    0.070334         0.958542    0.041458
   17 H             0.909881    0.090119         0.940891    0.059109

          -------------------------------
          BOND ORDER AND VALENCE ANALYSIS     BOND ORDER THRESHOLD=0.050
          -------------------------------

                   BOND                       BOND                       BOND
  ATOM PAIR DIST  ORDER      ATOM PAIR DIST  ORDER      ATOM PAIR DIST  ORDER
    1   2  1.570  0.962        1   3  1.552  0.991        1   4  1.094  0.963
    1   5  1.089  0.970        2   6  1.565  0.965        2   7  1.096  0.940
    2   8  1.130  0.953        3   9  1.417  1.807        3  17  1.070  0.943
    6   9  1.567  0.986        6  10  1.095  0.966        6  11  1.089  0.971
    9  16  1.108  0.951       12  13  1.155  0.995       12  14  1.163  0.992
   12  15  1.154  0.976

                       TOTAL       BONDED        FREE
      ATOM            VALENCE     VALENCE     VALENCE
    1 C                 3.959       3.959      -0.000
    2 C                 3.875       3.875       0.000
    3 C                 3.845       3.845       0.000
    4 H                 0.998       0.998       0.000
    5 H                 0.997       0.997      -0.000
    6 C                 3.958       3.958       0.000
    7 H                 0.993       0.993      -0.000
    8 H                 0.995       0.995       0.000
    9 C                 3.813       3.813      -0.000
   10 H                 0.998       0.998       0.000
   11 H                 0.998       0.998       0.000
   12 B                 2.992       2.992       0.000
   13 H                 0.998       0.998       0.000
   14 H                 0.996       0.996       0.000
   15 H                 0.996       0.996       0.000
   16 H                 0.995       0.995       0.000
   17 H                 0.992       0.992      -0.000

          ---------------------
          ELECTROSTATIC MOMENTS
          ---------------------

 POINT   1           X           Y           Z (BOHR)    CHARGE
                -8.348996   -0.609681    0.012771        0.00 (A.U.)
         DX          DY          DZ         /D/  (DEBYE)
    -0.241305    0.261641   -1.184430    1.236754
 ...... END OF PROPERTY EVALUATION ......
 STEP CPU TIME =     0.05 TOTAL CPU TIME =        102.1 (      1.7 MIN)
 TOTAL WALL CLOCK TIME=        103.4 SECONDS, CPU UTILIZATION IS    98.74%
  $VIB   
          IVIB=   0 IATOM=   0 ICOORD=   0 E=     -217.4527030345
  3.693824745E-03 1.785215328E-03-2.660981450E-02-1.631516428E-02 6.301522504E-03
  1.624715214E-01-1.774069717E-02-2.092699016E-02-1.057035736E-01-9.483678313E-03
 -9.321159321E-03-1.255582247E-02 1.009976397E-02 1.233085782E-02 3.279021874E-03
 -2.223518574E-02 1.711709209E-02-5.807437533E-02 6.674009588E-03-1.329054411E-02
 -7.604146735E-02 4.873084714E-03-7.067841733E-04-3.813288574E-03 2.539286522E-02
 -8.824608697E-02 1.169050605E-01 7.565802157E-03-3.578126467E-03-6.914961021E-03
 -7.860708658E-04 3.242612128E-03 3.115294739E-04 2.626905827E-02 1.986567151E-02
 -6.975980000E-03-2.383568690E-03-5.444646908E-04-3.426587931E-03-6.681596806E-03
  5.942972874E-03 6.966722229E-03-8.101440002E-03 2.864639333E-03-8.368937823E-03
 -1.770424923E-02 5.315541980E-02-3.774482034E-02 1.686324242E-02 1.400815250E-02
  5.629577346E-02
 -2.413047824E-01 2.616413055E-01-1.184430309E+00
 ......END OF GEOMETRY SEARCH......
 STEP CPU TIME =     0.01 TOTAL CPU TIME =        102.1 (      1.7 MIN)
 TOTAL WALL CLOCK TIME=        103.4 SECONDS, CPU UTILIZATION IS    98.74%
               580000  WORDS OF DYNAMIC MEMORY USED
 EXECUTION OF GAMESS TERMINATED NORMALLY Sat Nov 13 16:06:39 2021
 DDI: 263640 bytes (0.3 MB / 0 MWords) used by master data server.

 ----------------------------------------
 CPU timing information for all processes
 ========================================
 0: 98.352 + 3.781 = 102.134
 ----------------------------------------
 ddikick.x: exited gracefully.
----- accounting info -----
Files used on the master node chemcompute-node-0.novalocal were:
-rw-r--r--. 1 chemcomp chemcomp     1343 Nov 13 16:04 /scratch/306020/341922.F05
-rw-rw-r--. 1 chemcomp chemcomp  3960352 Nov 13 16:06 /scratch/306020/341922.F08
-rw-rw-r--. 1 chemcomp chemcomp 85196800 Nov 13 16:06 /scratch/306020/341922.F10
-rw-rw-r--. 1 chemcomp chemcomp   351696 Nov 13 16:06 /scratch/306020/341922.F18
Sat Nov 13 16:06:43 UTC 2021
0.131u 0.108s 1:47.10 0.2%	0+0k 8+216io 0pf+0w
Finishing Up...
Looking for IR data...
Looking for Raman data...
vibramans not found
Looking for thermodynamics data...
Looking for UV-Vis data...
306020
